/*--------------------------------*- C++ -*----------------------------------*\
  =========                 |
  \\      /  F ield         | OpenFOAM: The Open Source CFD Toolbox
   \\    /   O peration     | Website:  https://openfoam.org
    \\  /    A nd           | Version:  8
     \\/     M anipulation  |
\*---------------------------------------------------------------------------*/
FoamFile
{
    version     2.0;
    format      ascii;
    class       volScalarField;
    location    "0.2";
    object      CH;
}
// * * * * * * * * * * * * * * * * * * * * * * * * * * * * * * * * * * * * * //

dimensions      [0 0 0 0 0 0 0];

internalField   nonuniform List<scalar> 
25
(
2.92122e-16
2.22272e-14
1.12644e-12
2.84343e-11
2.67994e-10
2.89518e-16
2.20521e-14
1.11859e-12
2.82164e-11
2.64846e-10
2.8689e-16
2.18121e-14
1.10143e-12
2.75933e-11
2.57612e-10
2.82555e-16
2.15084e-14
1.08576e-12
2.70791e-11
2.48701e-10
2.85842e-16
2.17648e-14
1.09523e-12
2.70473e-11
2.34288e-10
)
;

boundaryField
{
    fuel
    {
        type            fixedValue;
        value           uniform 0;
    }
    air
    {
        type            fixedValue;
        value           nonuniform List<scalar> 0();
    }
    outlet
    {
        type            inletOutlet;
        inletValue      uniform 0;
        value           nonuniform List<scalar> 5(2.85842e-16 2.17648e-14 1.09523e-12 2.70473e-11 2.34288e-10);
    }
    frontAndBack
    {
        type            empty;
    }
    procBoundary2to0
    {
        type            processor;
        value           nonuniform List<scalar> 5(2.9213e-16 2.22277e-14 1.12646e-12 2.84348e-11 2.67997e-10);
    }
    procBoundary2to3
    {
        type            processor;
        value           nonuniform List<scalar> 5(1.4171e-09 1.40251e-09 1.37081e-09 1.33945e-09 1.26347e-09);
    }
}


// ************************************************************************* //
