/*--------------------------------*- C++ -*----------------------------------*\
  =========                 |
  \\      /  F ield         | OpenFOAM: The Open Source CFD Toolbox
   \\    /   O peration     | Website:  https://openfoam.org
    \\  /    A nd           | Version:  8
     \\/     M anipulation  |
\*---------------------------------------------------------------------------*/
FoamFile
{
    version     2.0;
    format      ascii;
    class       volScalarField;
    location    "0.2";
    object      CH2;
}
// * * * * * * * * * * * * * * * * * * * * * * * * * * * * * * * * * * * * * //

dimensions      [0 0 0 0 0 0 0];

internalField   nonuniform List<scalar> 
25
(
8.36235e-14
4.76981e-12
2.38584e-10
5.99113e-09
5.64168e-08
8.42309e-14
4.79208e-12
2.3996e-10
6.02359e-09
5.65061e-08
8.62218e-14
4.87654e-12
2.43424e-10
6.0789e-09
5.68261e-08
8.97968e-14
5.06015e-12
2.53233e-10
6.32178e-09
5.84296e-08
9.72509e-14
5.48892e-12
2.75355e-10
6.86596e-09
6.07317e-08
)
;

boundaryField
{
    fuel
    {
        type            fixedValue;
        value           uniform 0;
    }
    air
    {
        type            fixedValue;
        value           nonuniform List<scalar> 0();
    }
    outlet
    {
        type            inletOutlet;
        inletValue      uniform 0;
        value           nonuniform List<scalar> 5(9.72509e-14 5.48892e-12 2.75355e-10 6.86596e-09 6.07317e-08);
    }
    frontAndBack
    {
        type            empty;
    }
    procBoundary2to0
    {
        type            processor;
        value           nonuniform List<scalar> 5(8.36221e-14 4.76985e-12 2.38586e-10 5.99115e-09 5.64167e-08);
    }
    procBoundary2to3
    {
        type            processor;
        value           nonuniform List<scalar> 5(2.97922e-07 2.98837e-07 3.02451e-07 3.16364e-07 3.36807e-07);
    }
}


// ************************************************************************* //
