/*--------------------------------*- C++ -*----------------------------------*\
  =========                 |
  \\      /  F ield         | OpenFOAM: The Open Source CFD Toolbox
   \\    /   O peration     | Website:  https://openfoam.org
    \\  /    A nd           | Version:  8
     \\/     M anipulation  |
\*---------------------------------------------------------------------------*/
FoamFile
{
    version     2.0;
    format      ascii;
    class       volScalarField;
    location    "0.2";
    object      CH2(S);
}
// * * * * * * * * * * * * * * * * * * * * * * * * * * * * * * * * * * * * * //

dimensions      [0 0 0 0 0 0 0];

internalField   nonuniform List<scalar> 
25
(
2.25653e-15
1.71677e-13
8.69917e-12
2.19533e-10
2.06798e-09
2.25398e-15
1.71672e-13
8.70838e-12
2.19665e-10
2.06112e-09
2.27397e-15
1.72918e-13
8.7381e-12
2.19138e-10
2.0475e-09
2.31433e-15
1.76316e-13
8.92246e-12
2.23359e-10
2.05953e-09
2.45509e-15
1.87418e-13
9.48867e-12
2.36721e-10
2.08161e-09
)
;

boundaryField
{
    fuel
    {
        type            fixedValue;
        value           uniform 0;
    }
    air
    {
        type            fixedValue;
        value           nonuniform List<scalar> 0();
    }
    outlet
    {
        type            inletOutlet;
        inletValue      uniform 0;
        value           nonuniform List<scalar> 5(2.45509e-15 1.87418e-13 9.48867e-12 2.36721e-10 2.08161e-09);
    }
    frontAndBack
    {
        type            empty;
    }
    procBoundary2to0
    {
        type            processor;
        value           nonuniform List<scalar> 5(2.25657e-15 1.7168e-13 8.69928e-12 2.19535e-10 2.06798e-09);
    }
    procBoundary2to3
    {
        type            processor;
        value           nonuniform List<scalar> 5(1.09258e-08 1.09059e-08 1.08961e-08 1.1126e-08 1.14567e-08);
    }
}


// ************************************************************************* //
