/*--------------------------------*- C++ -*----------------------------------*\
  =========                 |
  \\      /  F ield         | OpenFOAM: The Open Source CFD Toolbox
   \\    /   O peration     | Website:  https://openfoam.org
    \\  /    A nd           | Version:  8
     \\/     M anipulation  |
\*---------------------------------------------------------------------------*/
FoamFile
{
    version     2.0;
    format      ascii;
    class       volScalarField;
    location    "0.2";
    object      CH2OH;
}
// * * * * * * * * * * * * * * * * * * * * * * * * * * * * * * * * * * * * * //

dimensions      [0 0 0 0 0 0 0];

internalField   nonuniform List<scalar> 
25
(
5.16194e-15
3.92689e-13
1.9892e-11
5.00374e-10
4.71134e-09
5.18681e-15
3.9503e-13
2.00391e-11
5.04e-10
4.72768e-09
5.30428e-15
4.03419e-13
2.03982e-11
5.10638e-10
4.77507e-09
5.5128e-15
4.20249e-13
2.13019e-11
5.33456e-10
4.9347e-09
5.97646e-15
4.5675e-13
2.31857e-11
5.80025e-10
5.1319e-09
)
;

boundaryField
{
    fuel
    {
        type            fixedValue;
        value           uniform 0;
    }
    air
    {
        type            fixedValue;
        value           nonuniform List<scalar> 0();
    }
    outlet
    {
        type            inletOutlet;
        inletValue      uniform 0;
        value           nonuniform List<scalar> 5(5.97646e-15 4.5675e-13 2.31857e-11 5.80025e-10 5.1319e-09);
    }
    frontAndBack
    {
        type            empty;
    }
    procBoundary2to0
    {
        type            processor;
        value           nonuniform List<scalar> 5(5.16198e-15 3.92691e-13 1.98922e-11 5.00375e-10 4.71132e-09);
    }
    procBoundary2to3
    {
        type            processor;
        value           nonuniform List<scalar> 5(2.48746e-08 2.49986e-08 2.54227e-08 2.67483e-08 2.84648e-08);
    }
}


// ************************************************************************* //
