/*--------------------------------*- C++ -*----------------------------------*\
  =========                 |
  \\      /  F ield         | OpenFOAM: The Open Source CFD Toolbox
   \\    /   O peration     | Website:  https://openfoam.org
    \\  /    A nd           | Version:  8
     \\/     M anipulation  |
\*---------------------------------------------------------------------------*/
FoamFile
{
    version     2.0;
    format      ascii;
    class       volScalarField;
    location    "0.2";
    object      CH3CHO;
}
// * * * * * * * * * * * * * * * * * * * * * * * * * * * * * * * * * * * * * //

dimensions      [0 0 0 0 0 0 0];

internalField   nonuniform List<scalar> 
25
(
1.62509e-09
1.34095e-08
5.96158e-08
1.42484e-07
1.32995e-08
1.61925e-09
1.3356e-08
5.95437e-08
1.42422e-07
1.33535e-08
1.62459e-09
1.34227e-08
5.97921e-08
1.42319e-07
1.35197e-08
1.61674e-09
1.33433e-08
5.95395e-08
1.40648e-07
1.38175e-08
1.61307e-09
1.3314e-08
5.92975e-08
1.353e-07
1.41559e-08
)
;

boundaryField
{
    fuel
    {
        type            fixedValue;
        value           uniform 0;
    }
    air
    {
        type            fixedValue;
        value           nonuniform List<scalar> 0();
    }
    outlet
    {
        type            inletOutlet;
        inletValue      uniform 0;
        value           nonuniform List<scalar> 5(1.61307e-09 1.3314e-08 5.92975e-08 1.353e-07 1.41559e-08);
    }
    frontAndBack
    {
        type            empty;
    }
    procBoundary2to0
    {
        type            processor;
        value           nonuniform List<scalar> 5(1.62536e-09 1.3411e-08 5.9619e-08 1.42486e-07 1.32997e-08);
    }
    procBoundary2to3
    {
        type            processor;
        value           nonuniform List<scalar> 5(4.50875e-09 4.74814e-09 5.6056e-09 7.98503e-09 1.23707e-08);
    }
}


// ************************************************************************* //
