/*--------------------------------*- C++ -*----------------------------------*\
  =========                 |
  \\      /  F ield         | OpenFOAM: The Open Source CFD Toolbox
   \\    /   O peration     | Website:  https://openfoam.org
    \\  /    A nd           | Version:  8
     \\/     M anipulation  |
\*---------------------------------------------------------------------------*/
FoamFile
{
    version     2.0;
    format      ascii;
    class       volScalarField;
    location    "0.2";
    object      CO;
}
// * * * * * * * * * * * * * * * * * * * * * * * * * * * * * * * * * * * * * //

dimensions      [0 0 0 0 0 0 0];

internalField   nonuniform List<scalar> 
25
(
0.000285478
0.00252166
0.0122604
0.0326894
0.0471738
0.00028467
0.00251369
0.0122555
0.0327155
0.0470913
0.00028614
0.00253056
0.0123265
0.0327603
0.0469195
0.00028591
0.0025276
0.0123635
0.0328575
0.0466897
0.00028725
0.00254541
0.0125307
0.0332789
0.0465325
)
;

boundaryField
{
    fuel
    {
        type            fixedValue;
        value           uniform 0;
    }
    air
    {
        type            fixedValue;
        value           nonuniform List<scalar> 0();
    }
    outlet
    {
        type            inletOutlet;
        inletValue      uniform 0;
        value           nonuniform List<scalar> 5(0.00028725 0.00254541 0.0125307 0.0332789 0.0465325);
    }
    frontAndBack
    {
        type            empty;
    }
    procBoundary2to0
    {
        type            processor;
        value           nonuniform List<scalar> 5(0.000285478 0.00252166 0.0122605 0.0326895 0.0471739);
    }
    procBoundary2to3
    {
        type            processor;
        value           nonuniform List<scalar> 5(0.0540187 0.0538892 0.0536114 0.0532049 0.0528906);
    }
}


// ************************************************************************* //
