/*--------------------------------*- C++ -*----------------------------------*\
  =========                 |
  \\      /  F ield         | OpenFOAM: The Open Source CFD Toolbox
   \\    /   O peration     | Website:  https://openfoam.org
    \\  /    A nd           | Version:  8
     \\/     M anipulation  |
\*---------------------------------------------------------------------------*/
FoamFile
{
    version     2.0;
    format      ascii;
    class       volScalarField;
    location    "0.2";
    object      H;
}
// * * * * * * * * * * * * * * * * * * * * * * * * * * * * * * * * * * * * * //

dimensions      [0 0 0 0 0 0 0];

internalField   nonuniform List<scalar> 
25
(
9.04704e-13
6.75577e-11
3.38743e-09
8.41738e-08
7.88914e-07
8.93215e-13
6.67362e-11
3.3487e-09
8.31287e-08
7.75678e-07
8.78086e-13
6.54277e-11
3.26523e-09
8.04121e-08
7.45177e-07
8.57618e-13
6.38918e-11
3.18469e-09
7.79523e-08
7.08543e-07
8.72686e-13
6.50831e-11
3.24019e-09
7.88213e-08
6.79967e-07
)
;

boundaryField
{
    fuel
    {
        type            fixedValue;
        value           uniform 0;
    }
    air
    {
        type            fixedValue;
        value           nonuniform List<scalar> 0();
    }
    outlet
    {
        type            inletOutlet;
        inletValue      uniform 0;
        value           nonuniform List<scalar> 5(8.72686e-13 6.50831e-11 3.24019e-09 7.88213e-08 6.79967e-07);
    }
    frontAndBack
    {
        type            empty;
    }
    procBoundary2to0
    {
        type            processor;
        value           nonuniform List<scalar> 5(9.04723e-13 6.75594e-11 3.38751e-09 8.41756e-08 7.8893e-07);
    }
    procBoundary2to3
    {
        type            processor;
        value           nonuniform List<scalar> 5(4.10811e-06 4.04346e-06 3.89425e-06 3.72584e-06 3.62931e-06);
    }
}


// ************************************************************************* //
