/*--------------------------------*- C++ -*----------------------------------*\
  =========                 |
  \\      /  F ield         | OpenFOAM: The Open Source CFD Toolbox
   \\    /   O peration     | Website:  https://openfoam.org
    \\  /    A nd           | Version:  8
     \\/     M anipulation  |
\*---------------------------------------------------------------------------*/
FoamFile
{
    version     2.0;
    format      ascii;
    class       volScalarField;
    location    "0.2";
    object      H2O;
}
// * * * * * * * * * * * * * * * * * * * * * * * * * * * * * * * * * * * * * //

dimensions      [0 0 0 0 0 0 0];

internalField   nonuniform List<scalar> 
25
(
0.000597405
0.00521768
0.025068
0.0662538
0.0950935
0.000596285
0.00520648
0.0250917
0.0664408
0.0952036
0.000600301
0.00525032
0.0252964
0.0667841
0.0954235
0.000600999
0.00525536
0.0254496
0.0673225
0.0957603
0.000604886
0.00530291
0.0258666
0.0685011
0.0961576
)
;

boundaryField
{
    fuel
    {
        type            fixedValue;
        value           uniform 0;
    }
    air
    {
        type            fixedValue;
        value           nonuniform List<scalar> 0();
    }
    outlet
    {
        type            inletOutlet;
        inletValue      uniform 0;
        value           nonuniform List<scalar> 5(0.000604886 0.00530291 0.0258666 0.0685011 0.0961576);
    }
    frontAndBack
    {
        type            empty;
    }
    procBoundary2to0
    {
        type            processor;
        value           nonuniform List<scalar> 5(0.00059741 0.00521772 0.0250682 0.0662541 0.0950936);
    }
    procBoundary2to3
    {
        type            processor;
        value           nonuniform List<scalar> 5(0.108087 0.108224 0.108606 0.109249 0.11005);
    }
}


// ************************************************************************* //
