/*--------------------------------*- C++ -*----------------------------------*\
  =========                 |
  \\      /  F ield         | OpenFOAM: The Open Source CFD Toolbox
   \\    /   O peration     | Website:  https://openfoam.org
    \\  /    A nd           | Version:  8
     \\/     M anipulation  |
\*---------------------------------------------------------------------------*/
FoamFile
{
    version     2.0;
    format      ascii;
    class       volScalarField;
    location    "0.2";
    object      N;
}
// * * * * * * * * * * * * * * * * * * * * * * * * * * * * * * * * * * * * * //

dimensions      [0 0 0 0 0 0 0];

internalField   nonuniform List<scalar> 
25
(
1.52148e-15
1.7381e-14
2.96454e-13
6.6681e-12
6.2825e-11
1.48091e-15
1.68779e-14
2.87865e-13
6.46497e-12
6.06278e-11
1.4097e-15
1.59148e-14
2.68829e-13
5.97896e-12
5.54978e-11
1.31405e-15
1.46885e-14
2.45718e-13
5.40168e-12
4.88963e-11
1.23706e-15
1.37616e-14
2.29384e-13
4.97985e-12
4.21759e-11
)
;

boundaryField
{
    fuel
    {
        type            fixedValue;
        value           uniform 0;
    }
    air
    {
        type            fixedValue;
        value           nonuniform List<scalar> 0();
    }
    outlet
    {
        type            inletOutlet;
        inletValue      uniform 0;
        value           nonuniform List<scalar> 5(1.23706e-15 1.37616e-14 2.29384e-13 4.97985e-12 4.21759e-11);
    }
    frontAndBack
    {
        type            empty;
    }
    procBoundary2to0
    {
        type            processor;
        value           nonuniform List<scalar> 5(1.52151e-15 1.73817e-14 2.96467e-13 6.66838e-12 6.28276e-11);
    }
    procBoundary2to3
    {
        type            processor;
        value           nonuniform List<scalar> 5(3.20049e-10 3.08665e-10 2.82285e-10 2.48978e-10 2.20542e-10);
    }
}


// ************************************************************************* //
