/*--------------------------------*- C++ -*----------------------------------*\
  =========                 |
  \\      /  F ield         | OpenFOAM: The Open Source CFD Toolbox
   \\    /   O peration     | Website:  https://openfoam.org
    \\  /    A nd           | Version:  8
     \\/     M anipulation  |
\*---------------------------------------------------------------------------*/
FoamFile
{
    version     2.0;
    format      ascii;
    class       volScalarField;
    location    "0.2";
    object      NO;
}
// * * * * * * * * * * * * * * * * * * * * * * * * * * * * * * * * * * * * * //

dimensions      [0 0 0 0 0 0 0];

internalField   nonuniform List<scalar> 
25
(
1.66997e-08
1.29976e-07
6.03264e-07
1.88368e-06
2.92447e-06
1.66822e-08
1.29745e-07
6.03426e-07
1.88216e-06
2.90815e-06
1.68048e-08
1.3089e-07
6.07857e-07
1.88092e-06
2.88231e-06
1.68524e-08
1.31174e-07
6.11584e-07
1.88623e-06
2.86209e-06
1.69785e-08
1.32507e-07
6.22287e-07
1.91618e-06
2.86e-06
)
;

boundaryField
{
    fuel
    {
        type            fixedValue;
        value           uniform 0;
    }
    air
    {
        type            fixedValue;
        value           nonuniform List<scalar> 0();
    }
    outlet
    {
        type            inletOutlet;
        inletValue      uniform 0;
        value           nonuniform List<scalar> 5(1.69785e-08 1.32507e-07 6.22287e-07 1.91618e-06 2.86e-06);
    }
    frontAndBack
    {
        type            empty;
    }
    procBoundary2to0
    {
        type            processor;
        value           nonuniform List<scalar> 5(1.66996e-08 1.29976e-07 6.03269e-07 1.8837e-06 2.92452e-06);
    }
    procBoundary2to3
    {
        type            processor;
        value           nonuniform List<scalar> 5(3.42657e-06 3.39357e-06 3.33701e-06 3.29451e-06 3.27879e-06);
    }
}


// ************************************************************************* //
