/*--------------------------------*- C++ -*----------------------------------*\
  =========                 |
  \\      /  F ield         | OpenFOAM: The Open Source CFD Toolbox
   \\    /   O peration     | Website:  https://openfoam.org
    \\  /    A nd           | Version:  8
     \\/     M anipulation  |
\*---------------------------------------------------------------------------*/
FoamFile
{
    version     2.0;
    format      ascii;
    class       volScalarField;
    location    "0.2";
    object      C2H;
}
// * * * * * * * * * * * * * * * * * * * * * * * * * * * * * * * * * * * * * //

dimensions      [0 0 0 0 0 0 0];

internalField   nonuniform List<scalar> 
25
(
1.35654e-07
1.34841e-08
5.49372e-10
7.83243e-12
5.99055e-14
1.34357e-07
1.34015e-08
5.50847e-10
7.92868e-12
6.09394e-14
1.30901e-07
1.32477e-08
5.58265e-10
8.14863e-12
6.28702e-14
1.26224e-07
1.31139e-08
5.71362e-10
8.46771e-12
6.54699e-14
1.2251e-07
1.31379e-08
5.94263e-10
8.98806e-12
6.99148e-14
)
;

boundaryField
{
    fuel
    {
        type            fixedValue;
        value           nonuniform List<scalar> 0();
    }
    air
    {
        type            fixedValue;
        value           uniform 0;
    }
    outlet
    {
        type            inletOutlet;
        inletValue      uniform 0;
        value           nonuniform List<scalar> 5(1.2251e-07 1.31379e-08 5.94263e-10 8.98806e-12 6.99148e-14);
    }
    frontAndBack
    {
        type            empty;
    }
    procBoundary3to1
    {
        type            processor;
        value           nonuniform List<scalar> 5(1.35655e-07 1.34841e-08 5.49371e-10 7.83239e-12 5.99052e-14);
    }
    procBoundary3to2
    {
        type            processor;
        value           nonuniform List<scalar> 5(2.56766e-08 2.53843e-08 2.46156e-08 2.35535e-08 2.26137e-08);
    }
}


// ************************************************************************* //
