/*--------------------------------*- C++ -*----------------------------------*\
  =========                 |
  \\      /  F ield         | OpenFOAM: The Open Source CFD Toolbox
   \\    /   O peration     | Website:  https://openfoam.org
    \\  /    A nd           | Version:  8
     \\/     M anipulation  |
\*---------------------------------------------------------------------------*/
FoamFile
{
    version     2.0;
    format      ascii;
    class       volScalarField;
    location    "0.2";
    object      C3H8;
}
// * * * * * * * * * * * * * * * * * * * * * * * * * * * * * * * * * * * * * //

dimensions      [0 0 0 0 0 0 0];

internalField   nonuniform List<scalar> 
25
(
1.39213e-07
1.4627e-08
4.06707e-09
7.04067e-10
7.10451e-11
1.4134e-07
1.49131e-08
4.20319e-09
7.33118e-10
7.38231e-11
1.46149e-07
1.55961e-08
4.55137e-09
7.80093e-10
7.79744e-11
1.51894e-07
1.64806e-08
4.96618e-09
8.30082e-10
8.22724e-11
1.4513e-07
1.65252e-08
5.37725e-09
8.89004e-10
8.7312e-11
)
;

boundaryField
{
    fuel
    {
        type            fixedValue;
        value           nonuniform List<scalar> 0();
    }
    air
    {
        type            fixedValue;
        value           uniform 0;
    }
    outlet
    {
        type            inletOutlet;
        inletValue      uniform 0;
        value           nonuniform List<scalar> 5(1.4513e-07 1.65252e-08 5.37725e-09 8.89004e-10 8.7312e-11);
    }
    frontAndBack
    {
        type            empty;
    }
    procBoundary3to1
    {
        type            processor;
        value           nonuniform List<scalar> 5(1.3921e-07 1.46266e-08 4.06721e-09 7.04338e-10 7.11052e-11);
    }
    procBoundary3to2
    {
        type            processor;
        value           nonuniform List<scalar> 5(1.18574e-06 1.20246e-06 1.24068e-06 1.28474e-06 1.13992e-06);
    }
}


// ************************************************************************* //
