/*--------------------------------*- C++ -*----------------------------------*\
  =========                 |
  \\      /  F ield         | OpenFOAM: The Open Source CFD Toolbox
   \\    /   O peration     | Website:  https://openfoam.org
    \\  /    A nd           | Version:  8
     \\/     M anipulation  |
\*---------------------------------------------------------------------------*/
FoamFile
{
    version     2.0;
    format      ascii;
    class       volScalarField;
    location    "0.2";
    object      CH3;
}
// * * * * * * * * * * * * * * * * * * * * * * * * * * * * * * * * * * * * * //

dimensions      [0 0 0 0 0 0 0];

internalField   nonuniform List<scalar> 
25
(
0.000119438
1.1905e-05
4.86865e-07
1.00496e-08
3.41072e-10
0.000121591
1.21709e-05
5.0187e-07
1.04057e-08
3.50055e-10
0.000127672
1.29345e-05
5.45871e-07
1.1326e-08
3.72161e-10
0.000141001
1.45027e-05
6.28441e-07
1.2958e-08
4.09154e-10
0.000159708
1.66067e-05
7.40481e-07
1.52537e-08
4.59168e-10
)
;

boundaryField
{
    fuel
    {
        type            fixedValue;
        value           nonuniform List<scalar> 0();
    }
    air
    {
        type            fixedValue;
        value           uniform 0;
    }
    outlet
    {
        type            inletOutlet;
        inletValue      uniform 0;
        value           nonuniform List<scalar> 5(0.000159708 1.66067e-05 7.40481e-07 1.52537e-08 4.59168e-10);
    }
    frontAndBack
    {
        type            empty;
    }
    procBoundary3to1
    {
        type            processor;
        value           nonuniform List<scalar> 5(0.000119435 1.19047e-05 4.86849e-07 1.00492e-08 3.41061e-10);
    }
    procBoundary3to2
    {
        type            processor;
        value           nonuniform List<scalar> 5(4.04373e-05 4.0841e-05 4.18241e-05 4.37473e-05 4.35277e-05);
    }
}


// ************************************************************************* //
