/*--------------------------------*- C++ -*----------------------------------*\
  =========                 |
  \\      /  F ield         | OpenFOAM: The Open Source CFD Toolbox
   \\    /   O peration     | Website:  https://openfoam.org
    \\  /    A nd           | Version:  8
     \\/     M anipulation  |
\*---------------------------------------------------------------------------*/
FoamFile
{
    version     2.0;
    format      ascii;
    class       volScalarField;
    location    "0.2";
    object      CH3OH;
}
// * * * * * * * * * * * * * * * * * * * * * * * * * * * * * * * * * * * * * //

dimensions      [0 0 0 0 0 0 0];

internalField   nonuniform List<scalar> 
25
(
1.30087e-06
2.69561e-07
6.01195e-07
2.31299e-07
2.59532e-08
1.36298e-06
3.95587e-07
1.13656e-06
2.8951e-07
3.06621e-08
1.52281e-06
7.27055e-07
2.80339e-06
4.50187e-07
4.13e-08
1.78342e-06
9.87744e-07
3.94413e-06
5.93675e-07
5.13306e-08
2.11852e-06
1.15246e-06
4.68556e-06
7.05671e-07
5.96859e-08
)
;

boundaryField
{
    fuel
    {
        type            fixedValue;
        value           nonuniform List<scalar> 0();
    }
    air
    {
        type            fixedValue;
        value           uniform 0;
    }
    outlet
    {
        type            inletOutlet;
        inletValue      uniform 0;
        value           nonuniform List<scalar> 5(2.11852e-06 1.15246e-06 4.68556e-06 7.05671e-07 5.96859e-08);
    }
    frontAndBack
    {
        type            empty;
    }
    procBoundary3to1
    {
        type            processor;
        value           nonuniform List<scalar> 5(1.30084e-06 2.6955e-07 6.01151e-07 2.31303e-07 2.5955e-08);
    }
    procBoundary3to2
    {
        type            processor;
        value           nonuniform List<scalar> 5(2.89724e-07 2.95731e-07 3.1284e-07 3.42957e-07 3.86815e-07);
    }
}


// ************************************************************************* //
