/*--------------------------------*- C++ -*----------------------------------*\
  =========                 |
  \\      /  F ield         | OpenFOAM: The Open Source CFD Toolbox
   \\    /   O peration     | Website:  https://openfoam.org
    \\  /    A nd           | Version:  8
     \\/     M anipulation  |
\*---------------------------------------------------------------------------*/
FoamFile
{
    version     2.0;
    format      ascii;
    class       volScalarField;
    location    "0.2";
    object      CH4;
}
// * * * * * * * * * * * * * * * * * * * * * * * * * * * * * * * * * * * * * //

dimensions      [0 0 0 0 0 0 0];

internalField   nonuniform List<scalar> 
25
(
0.0189702
0.00198678
0.000530877
8.33761e-05
7.03547e-06
0.0190962
0.00200865
0.000539732
8.58941e-05
7.24717e-06
0.019486
0.00207521
0.000563724
8.97334e-05
7.56275e-06
0.0202542
0.00219866
0.000599165
9.42931e-05
7.92339e-06
0.0213037
0.00235763
0.000642219
0.000100517
8.39276e-06
)
;

boundaryField
{
    fuel
    {
        type            fixedValue;
        value           nonuniform List<scalar> 0();
    }
    air
    {
        type            fixedValue;
        value           uniform 0;
    }
    outlet
    {
        type            inletOutlet;
        inletValue      uniform 0;
        value           nonuniform List<scalar> 5(0.0213037 0.00235763 0.000642219 0.000100517 8.39276e-06);
    }
    frontAndBack
    {
        type            empty;
    }
    procBoundary3to1
    {
        type            processor;
        value           nonuniform List<scalar> 5(0.0189699 0.00198665 0.000530835 8.33699e-05 7.03504e-06);
    }
    procBoundary3to2
    {
        type            processor;
        value           nonuniform List<scalar> 5(0.138429 0.138446 0.138759 0.139259 0.139359);
    }
}


// ************************************************************************* //
