/*--------------------------------*- C++ -*----------------------------------*\
  =========                 |
  \\      /  F ield         | OpenFOAM: The Open Source CFD Toolbox
   \\    /   O peration     | Website:  https://openfoam.org
    \\  /    A nd           | Version:  8
     \\/     M anipulation  |
\*---------------------------------------------------------------------------*/
FoamFile
{
    version     2.0;
    format      ascii;
    class       volScalarField;
    location    "0.2";
    object      H2CN;
}
// * * * * * * * * * * * * * * * * * * * * * * * * * * * * * * * * * * * * * //

dimensions      [0 0 0 0 0 0 0];

internalField   nonuniform List<scalar> 
25
(
6.54363e-12
6.89613e-13
2.15365e-13
2.10183e-13
1.73365e-14
6.41442e-12
6.70227e-13
1.68991e-13
2.14961e-13
1.7808e-14
6.15125e-12
6.37681e-13
8.25602e-14
2.23306e-13
1.85889e-14
5.86693e-12
6.18591e-13
6.44818e-14
2.4018e-13
1.98559e-14
5.49549e-12
6.02043e-13
6.70606e-14
2.69583e-13
2.18573e-14
)
;

boundaryField
{
    fuel
    {
        type            fixedValue;
        value           nonuniform List<scalar> 0();
    }
    air
    {
        type            fixedValue;
        value           uniform 0;
    }
    outlet
    {
        type            inletOutlet;
        inletValue      uniform 0;
        value           nonuniform List<scalar> 5(5.49549e-12 6.02043e-13 6.70606e-14 2.69583e-13 2.18573e-14);
    }
    frontAndBack
    {
        type            empty;
    }
    procBoundary3to1
    {
        type            processor;
        value           nonuniform List<scalar> 5(6.54375e-12 6.89621e-13 2.15396e-13 2.10182e-13 1.73368e-14);
    }
    procBoundary3to2
    {
        type            processor;
        value           nonuniform List<scalar> 5(4.11623e-12 4.04331e-12 3.9036e-12 3.74616e-12 3.50494e-12);
    }
}


// ************************************************************************* //
