/*--------------------------------*- C++ -*----------------------------------*\
  =========                 |
  \\      /  F ield         | OpenFOAM: The Open Source CFD Toolbox
   \\    /   O peration     | Website:  https://openfoam.org
    \\  /    A nd           | Version:  8
     \\/     M anipulation  |
\*---------------------------------------------------------------------------*/
FoamFile
{
    version     2.0;
    format      ascii;
    class       volScalarField;
    location    "0.2";
    object      HCCOH;
}
// * * * * * * * * * * * * * * * * * * * * * * * * * * * * * * * * * * * * * //

dimensions      [0 0 0 0 0 0 0];

internalField   nonuniform List<scalar> 
25
(
1.08349e-05
1.13492e-06
3.04545e-07
4.68967e-08
3.81364e-09
1.09154e-05
1.14756e-06
3.09191e-07
4.82199e-08
3.91936e-09
1.10859e-05
1.17895e-06
3.20597e-07
5.00499e-08
4.06193e-09
1.12681e-05
1.22401e-06
3.35404e-07
5.19671e-08
4.20802e-09
1.13647e-05
1.26941e-06
3.52084e-07
5.45962e-08
4.4017e-09
)
;

boundaryField
{
    fuel
    {
        type            fixedValue;
        value           nonuniform List<scalar> 0();
    }
    air
    {
        type            fixedValue;
        value           uniform 0;
    }
    outlet
    {
        type            inletOutlet;
        inletValue      uniform 0;
        value           nonuniform List<scalar> 5(1.13647e-05 1.26941e-06 3.52084e-07 5.45962e-08 4.4017e-09);
    }
    frontAndBack
    {
        type            empty;
    }
    procBoundary3to1
    {
        type            processor;
        value           nonuniform List<scalar> 5(1.08348e-05 1.1349e-06 3.04542e-07 4.68968e-08 3.81371e-09);
    }
    procBoundary3to2
    {
        type            processor;
        value           nonuniform List<scalar> 5(7.36431e-06 7.37863e-06 7.3922e-06 7.36153e-06 7.15045e-06);
    }
}


// ************************************************************************* //
