/*--------------------------------*- C++ -*----------------------------------*\
  =========                 |
  \\      /  F ield         | OpenFOAM: The Open Source CFD Toolbox
   \\    /   O peration     | Website:  https://openfoam.org
    \\  /    A nd           | Version:  8
     \\/     M anipulation  |
\*---------------------------------------------------------------------------*/
FoamFile
{
    version     2.0;
    format      ascii;
    class       volScalarField;
    location    "0.2";
    object      NCO;
}
// * * * * * * * * * * * * * * * * * * * * * * * * * * * * * * * * * * * * * //

dimensions      [0 0 0 0 0 0 0];

internalField   nonuniform List<scalar> 
25
(
2.13276e-10
4.58114e-11
1.44604e-11
8.99846e-13
5.75201e-14
2.07094e-10
4.19508e-11
1.37728e-11
8.68255e-13
5.59605e-14
1.9535e-10
3.43968e-11
1.20423e-11
7.96131e-13
5.20771e-14
1.86247e-10
2.74603e-11
1.1225e-11
7.44824e-13
4.8817e-14
1.82363e-10
2.40405e-11
1.047e-11
7.06643e-13
4.63704e-14
)
;

boundaryField
{
    fuel
    {
        type            fixedValue;
        value           nonuniform List<scalar> 0();
    }
    air
    {
        type            fixedValue;
        value           uniform 0;
    }
    outlet
    {
        type            inletOutlet;
        inletValue      uniform 0;
        value           nonuniform List<scalar> 5(1.82363e-10 2.40405e-11 1.047e-11 7.06643e-13 4.63704e-14);
    }
    frontAndBack
    {
        type            empty;
    }
    procBoundary3to1
    {
        type            processor;
        value           nonuniform List<scalar> 5(2.13285e-10 4.58175e-11 1.4461e-11 8.99872e-13 5.75201e-14);
    }
    procBoundary3to2
    {
        type            processor;
        value           nonuniform List<scalar> 5(4.24883e-11 4.12559e-11 3.89019e-11 3.6706e-11 3.50214e-11);
    }
}


// ************************************************************************* //
