/*--------------------------------*- C++ -*----------------------------------*\
  =========                 |
  \\      /  F ield         | OpenFOAM: The Open Source CFD Toolbox
   \\    /   O peration     | Website:  https://openfoam.org
    \\  /    A nd           | Version:  8
     \\/     M anipulation  |
\*---------------------------------------------------------------------------*/
FoamFile
{
    version     2.0;
    format      ascii;
    class       volScalarField;
    location    "0.2";
    object      NH2;
}
// * * * * * * * * * * * * * * * * * * * * * * * * * * * * * * * * * * * * * //

dimensions      [0 0 0 0 0 0 0];

internalField   nonuniform List<scalar> 
25
(
1.23242e-08
1.43917e-09
1.03903e-09
1.57727e-10
1.3118e-11
1.20395e-08
1.41099e-09
1.0148e-09
1.59772e-10
1.33225e-11
1.14376e-08
1.35591e-09
9.4397e-10
1.59702e-10
1.34172e-11
1.07766e-08
1.30885e-09
9.09101e-10
1.61158e-10
1.35687e-11
1.03409e-08
1.28301e-09
8.55522e-10
1.64567e-10
1.38665e-11
)
;

boundaryField
{
    fuel
    {
        type            fixedValue;
        value           nonuniform List<scalar> 0();
    }
    air
    {
        type            fixedValue;
        value           uniform 0;
    }
    outlet
    {
        type            inletOutlet;
        inletValue      uniform 0;
        value           nonuniform List<scalar> 5(1.03409e-08 1.28301e-09 8.55522e-10 1.64567e-10 1.38665e-11);
    }
    frontAndBack
    {
        type            empty;
    }
    procBoundary3to1
    {
        type            processor;
        value           nonuniform List<scalar> 5(1.23246e-08 1.43921e-09 1.03904e-09 1.57727e-10 1.3118e-11);
    }
    procBoundary3to2
    {
        type            processor;
        value           nonuniform List<scalar> 5(2.3532e-09 2.29761e-09 2.17995e-09 2.04356e-09 1.93934e-09);
    }
}


// ************************************************************************* //
