/*--------------------------------*- C++ -*----------------------------------*\
  =========                 |
  \\      /  F ield         | OpenFOAM: The Open Source CFD Toolbox
   \\    /   O peration     | Website:  https://openfoam.org
    \\  /    A nd           | Version:  8
     \\/     M anipulation  |
\*---------------------------------------------------------------------------*/
FoamFile
{
    version     2.0;
    format      ascii;
    class       volScalarField;
    location    "0.2";
    object      OH;
}
// * * * * * * * * * * * * * * * * * * * * * * * * * * * * * * * * * * * * * //

dimensions      [0 0 0 0 0 0 0];

internalField   nonuniform List<scalar> 
25
(
8.23626e-05
0.000283704
1.15734e-05
1.79294e-07
4.70051e-09
8.36276e-05
0.000290327
1.19454e-05
1.85772e-07
4.80654e-09
8.70021e-05
0.000310556
1.30617e-05
2.03939e-07
5.1385e-09
9.30351e-05
0.000350274
1.51285e-05
2.36589e-07
5.73536e-09
9.90454e-05
0.000402999
1.79098e-05
2.81735e-07
6.54729e-09
)
;

boundaryField
{
    fuel
    {
        type            fixedValue;
        value           nonuniform List<scalar> 0();
    }
    air
    {
        type            fixedValue;
        value           uniform 0;
    }
    outlet
    {
        type            inletOutlet;
        inletValue      uniform 0;
        value           nonuniform List<scalar> 5(9.90454e-05 0.000402999 1.79098e-05 2.81735e-07 6.54729e-09);
    }
    frontAndBack
    {
        type            empty;
    }
    procBoundary3to1
    {
        type            processor;
        value           nonuniform List<scalar> 5(8.23615e-05 0.000283695 1.1573e-05 1.79287e-07 4.70037e-09);
    }
    procBoundary3to2
    {
        type            processor;
        value           nonuniform List<scalar> 5(1.56307e-05 1.58399e-05 1.63204e-05 1.71244e-05 1.78553e-05);
    }
}


// ************************************************************************* //
