/*--------------------------------*- C++ -*----------------------------------*\
  =========                 |
  \\      /  F ield         | OpenFOAM: The Open Source CFD Toolbox
   \\    /   O peration     | Website:  https://openfoam.org
    \\  /    A nd           | Version:  8
     \\/     M anipulation  |
\*---------------------------------------------------------------------------*/
FoamFile
{
    version     2.0;
    format      ascii;
    class       volScalarField;
    location    "0.15";
    object      C2H;
}
// * * * * * * * * * * * * * * * * * * * * * * * * * * * * * * * * * * * * * //

dimensions      [0 0 0 0 0 0 0];

internalField   nonuniform List<scalar> 
25
(
2.05344e-14
1.6402e-12
8.73804e-11
2.30153e-09
2.11305e-08
2.05595e-14
1.64158e-12
8.77237e-11
2.33516e-09
2.28026e-08
2.09753e-14
1.67283e-12
8.94041e-11
2.39008e-09
2.37393e-08
2.11609e-14
1.69042e-12
9.07048e-11
2.43994e-09
2.43594e-08
2.11996e-14
1.69116e-12
9.06077e-11
2.43696e-09
2.44051e-08
)
;

boundaryField
{
    fuel
    {
        type            fixedValue;
        value           uniform 0;
    }
    air
    {
        type            fixedValue;
        value           nonuniform List<scalar> 0();
    }
    outlet
    {
        type            inletOutlet;
        inletValue      uniform 0;
        value           nonuniform List<scalar> 5(2.05344e-14 1.6402e-12 8.73804e-11 2.30153e-09 2.11305e-08);
    }
    frontAndBack
    {
        type            empty;
    }
    procBoundary0to1
    {
        type            processor;
        value           nonuniform List<scalar> 5(1.19182e-07 1.29089e-07 1.32848e-07 1.3567e-07 1.35462e-07);
    }
    procBoundary0to2
    {
        type            processor;
        value           nonuniform List<scalar> 5(2.11401e-14 1.68647e-12 9.03614e-11 2.43061e-09 2.4349e-08);
    }
}


// ************************************************************************* //
