/*--------------------------------*- C++ -*----------------------------------*\
  =========                 |
  \\      /  F ield         | OpenFOAM: The Open Source CFD Toolbox
   \\    /   O peration     | Website:  https://openfoam.org
    \\  /    A nd           | Version:  8
     \\/     M anipulation  |
\*---------------------------------------------------------------------------*/
FoamFile
{
    version     2.0;
    format      ascii;
    class       volScalarField;
    location    "0.15";
    object      C3H7;
}
// * * * * * * * * * * * * * * * * * * * * * * * * * * * * * * * * * * * * * //

dimensions      [0 0 0 0 0 0 0];

internalField   nonuniform List<scalar> 
25
(
9.69652e-11
5.80066e-10
2.75616e-09
4.611e-10
1.03903e-10
9.61063e-11
5.63796e-10
2.59653e-09
4.85904e-10
9.60651e-11
9.5743e-11
5.54002e-10
2.50867e-09
4.89656e-10
6.9865e-11
9.51631e-11
5.4298e-10
2.42427e-09
4.89347e-10
6.82394e-11
9.54216e-11
5.41881e-10
2.40408e-09
4.92811e-10
6.72235e-11
)
;

boundaryField
{
    fuel
    {
        type            fixedValue;
        value           uniform 0;
    }
    air
    {
        type            fixedValue;
        value           nonuniform List<scalar> 0();
    }
    outlet
    {
        type            inletOutlet;
        inletValue      uniform 0;
        value           nonuniform List<scalar> 5(9.69652e-11 5.80066e-10 2.75616e-09 4.611e-10 1.03903e-10);
    }
    frontAndBack
    {
        type            empty;
    }
    procBoundary0to1
    {
        type            processor;
        value           nonuniform List<scalar> 5(1.09407e-10 7.60627e-11 5.62425e-11 4.48122e-11 3.88956e-11);
    }
    procBoundary0to2
    {
        type            processor;
        value           nonuniform List<scalar> 5(9.53626e-11 5.40973e-10 2.39712e-09 4.9121e-10 6.68661e-11);
    }
}


// ************************************************************************* //
