/*--------------------------------*- C++ -*----------------------------------*\
  =========                 |
  \\      /  F ield         | OpenFOAM: The Open Source CFD Toolbox
   \\    /   O peration     | Website:  https://openfoam.org
    \\  /    A nd           | Version:  8
     \\/     M anipulation  |
\*---------------------------------------------------------------------------*/
FoamFile
{
    version     2.0;
    format      ascii;
    class       volScalarField;
    location    "0.15";
    object      C3H8;
}
// * * * * * * * * * * * * * * * * * * * * * * * * * * * * * * * * * * * * * //

dimensions      [0 0 0 0 0 0 0];

internalField   nonuniform List<scalar> 
25
(
1.54341e-08
1.18721e-07
4.88123e-07
1.0842e-06
1.15278e-06
1.53655e-08
1.1806e-07
4.84509e-07
1.09226e-06
1.21855e-06
1.53559e-08
1.1824e-07
4.86714e-07
1.12465e-06
1.39141e-06
1.52656e-08
1.17492e-07
4.85638e-07
1.12629e-06
1.36976e-06
1.5297e-08
1.17932e-07
4.87303e-07
1.12726e-06
1.35951e-06
)
;

boundaryField
{
    fuel
    {
        type            fixedValue;
        value           uniform 0;
    }
    air
    {
        type            fixedValue;
        value           nonuniform List<scalar> 0();
    }
    outlet
    {
        type            inletOutlet;
        inletValue      uniform 0;
        value           nonuniform List<scalar> 5(1.54341e-08 1.18721e-07 4.88123e-07 1.0842e-06 1.15278e-06);
    }
    frontAndBack
    {
        type            empty;
    }
    procBoundary0to1
    {
        type            processor;
        value           nonuniform List<scalar> 5(1.45592e-07 1.46842e-07 1.58283e-07 1.55969e-07 1.54321e-07);
    }
    procBoundary0to2
    {
        type            processor;
        value           nonuniform List<scalar> 5(1.52747e-08 1.17516e-07 4.84117e-07 1.12111e-06 1.35864e-06);
    }
}


// ************************************************************************* //
