/*--------------------------------*- C++ -*----------------------------------*\
  =========                 |
  \\      /  F ield         | OpenFOAM: The Open Source CFD Toolbox
   \\    /   O peration     | Website:  https://openfoam.org
    \\  /    A nd           | Version:  8
     \\/     M anipulation  |
\*---------------------------------------------------------------------------*/
FoamFile
{
    version     2.0;
    format      ascii;
    class       volScalarField;
    location    "0.15";
    object      CH2CO;
}
// * * * * * * * * * * * * * * * * * * * * * * * * * * * * * * * * * * * * * //

dimensions      [0 0 0 0 0 0 0];

internalField   nonuniform List<scalar> 
25
(
1.39714e-06
1.02915e-05
3.98509e-05
9.01621e-05
0.000116618
1.38645e-06
1.01531e-05
3.87317e-05
8.6181e-05
0.000109906
1.38039e-06
1.00766e-05
3.79662e-05
8.32294e-05
0.000105565
1.36837e-06
9.94227e-06
3.72497e-05
8.08058e-05
0.000100416
1.3684e-06
9.93154e-06
3.69832e-05
7.95937e-05
9.80969e-05
)
;

boundaryField
{
    fuel
    {
        type            fixedValue;
        value           uniform 0;
    }
    air
    {
        type            fixedValue;
        value           nonuniform List<scalar> 0();
    }
    outlet
    {
        type            inletOutlet;
        inletValue      uniform 0;
        value           nonuniform List<scalar> 5(1.39714e-06 1.02915e-05 3.98509e-05 9.01621e-05 0.000116618);
    }
    frontAndBack
    {
        type            empty;
    }
    procBoundary0to1
    {
        type            processor;
        value           nonuniform List<scalar> 5(9.61092e-05 8.03075e-05 6.74597e-05 6.0443e-05 5.67223e-05);
    }
    procBoundary0to2
    {
        type            processor;
        value           nonuniform List<scalar> 5(1.36802e-06 9.92384e-06 3.69199e-05 7.94502e-05 9.80038e-05);
    }
}


// ************************************************************************* //
