/*--------------------------------*- C++ -*----------------------------------*\
  =========                 |
  \\      /  F ield         | OpenFOAM: The Open Source CFD Toolbox
   \\    /   O peration     | Website:  https://openfoam.org
    \\  /    A nd           | Version:  8
     \\/     M anipulation  |
\*---------------------------------------------------------------------------*/
FoamFile
{
    version     2.0;
    format      ascii;
    class       volScalarField;
    location    "0.15";
    object      CH3;
}
// * * * * * * * * * * * * * * * * * * * * * * * * * * * * * * * * * * * * * //

dimensions      [0 0 0 0 0 0 0];

internalField   nonuniform List<scalar> 
25
(
6.09053e-09
5.78088e-08
5.98985e-07
7.17645e-06
4.46361e-05
5.99489e-09
5.64838e-08
5.7539e-07
6.78692e-06
4.33125e-05
5.9579e-09
5.60489e-08
5.68868e-07
6.75969e-06
4.45732e-05
5.90661e-09
5.53246e-08
5.58674e-07
6.61643e-06
4.34324e-05
5.90335e-09
5.5184e-08
5.54175e-07
6.51889e-06
4.26255e-05
)
;

boundaryField
{
    fuel
    {
        type            fixedValue;
        value           uniform 0;
    }
    air
    {
        type            fixedValue;
        value           nonuniform List<scalar> 0();
    }
    outlet
    {
        type            inletOutlet;
        inletValue      uniform 0;
        value           nonuniform List<scalar> 5(6.09053e-09 5.78088e-08 5.98985e-07 7.17645e-06 4.46361e-05);
    }
    frontAndBack
    {
        type            empty;
    }
    procBoundary0to1
    {
        type            processor;
        value           nonuniform List<scalar> 5(0.000179338 0.000164943 0.000150556 0.000142197 0.000136757);
    }
    procBoundary0to2
    {
        type            processor;
        value           nonuniform List<scalar> 5(5.89842e-09 5.51751e-08 5.53917e-07 6.5105e-06 4.25409e-05);
    }
}


// ************************************************************************* //
