/*--------------------------------*- C++ -*----------------------------------*\
  =========                 |
  \\      /  F ield         | OpenFOAM: The Open Source CFD Toolbox
   \\    /   O peration     | Website:  https://openfoam.org
    \\  /    A nd           | Version:  8
     \\/     M anipulation  |
\*---------------------------------------------------------------------------*/
FoamFile
{
    version     2.0;
    format      ascii;
    class       volScalarField;
    location    "0.15";
    object      CH4;
}
// * * * * * * * * * * * * * * * * * * * * * * * * * * * * * * * * * * * * * //

dimensions      [0 0 0 0 0 0 0];

internalField   nonuniform List<scalar> 
25
(
0.993478
0.947613
0.760235
0.381615
0.140032
0.993494
0.947866
0.763228
0.390189
0.139852
0.993485
0.947771
0.76404
0.393279
0.139229
0.993513
0.948089
0.76545
0.395126
0.138826
0.993497
0.947933
0.76548
0.396256
0.138766
)
;

boundaryField
{
    fuel
    {
        type            fixedValue;
        value           uniform 1;
    }
    air
    {
        type            fixedValue;
        value           nonuniform List<scalar> 0();
    }
    outlet
    {
        type            inletOutlet;
        inletValue      uniform 0;
        value           nonuniform List<scalar> 5(0.993478 0.947613 0.760235 0.381615 0.140032);
    }
    frontAndBack
    {
        type            empty;
    }
    procBoundary0to1
    {
        type            processor;
        value           nonuniform List<scalar> 5(0.0215218 0.0204031 0.0195607 0.0191144 0.0189456);
    }
    procBoundary0to2
    {
        type            processor;
        value           nonuniform List<scalar> 5(0.993497 0.947933 0.765482 0.396261 0.138767);
    }
}


// ************************************************************************* //
