/*--------------------------------*- C++ -*----------------------------------*\
  =========                 |
  \\      /  F ield         | OpenFOAM: The Open Source CFD Toolbox
   \\    /   O peration     | Website:  https://openfoam.org
    \\  /    A nd           | Version:  8
     \\/     M anipulation  |
\*---------------------------------------------------------------------------*/
FoamFile
{
    version     2.0;
    format      ascii;
    class       volScalarField;
    location    "0.15";
    object      H2O2;
}
// * * * * * * * * * * * * * * * * * * * * * * * * * * * * * * * * * * * * * //

dimensions      [0 0 0 0 0 0 0];

internalField   nonuniform List<scalar> 
25
(
5.4986e-09
4.90051e-08
2.39121e-07
5.99844e-07
3.62197e-07
5.46546e-09
4.84406e-08
2.3346e-07
5.77048e-07
3.52834e-07
5.45784e-09
4.82247e-08
2.3003e-07
5.6052e-07
3.40369e-07
5.41914e-09
4.76681e-08
2.26323e-07
5.46083e-07
3.2088e-07
5.42492e-09
4.76423e-08
2.24825e-07
5.37897e-07
3.11813e-07
)
;

boundaryField
{
    fuel
    {
        type            fixedValue;
        value           uniform 0;
    }
    air
    {
        type            fixedValue;
        value           nonuniform List<scalar> 0();
    }
    outlet
    {
        type            inletOutlet;
        inletValue      uniform 0;
        value           nonuniform List<scalar> 5(5.4986e-09 4.90051e-08 2.39121e-07 5.99844e-07 3.62197e-07);
    }
    frontAndBack
    {
        type            empty;
    }
    procBoundary0to1
    {
        type            processor;
        value           nonuniform List<scalar> 5(1.54771e-06 1.47766e-06 1.32534e-06 1.19167e-06 1.13683e-06);
    }
    procBoundary0to2
    {
        type            processor;
        value           nonuniform List<scalar> 5(5.42375e-09 4.76238e-08 2.24709e-07 5.37775e-07 3.11976e-07);
    }
}


// ************************************************************************* //
