/*--------------------------------*- C++ -*----------------------------------*\
  =========                 |
  \\      /  F ield         | OpenFOAM: The Open Source CFD Toolbox
   \\    /   O peration     | Website:  https://openfoam.org
    \\  /    A nd           | Version:  8
     \\/     M anipulation  |
\*---------------------------------------------------------------------------*/
FoamFile
{
    version     2.0;
    format      ascii;
    class       volScalarField;
    location    "0.15";
    object      HCN;
}
// * * * * * * * * * * * * * * * * * * * * * * * * * * * * * * * * * * * * * //

dimensions      [0 0 0 0 0 0 0];

internalField   nonuniform List<scalar> 
25
(
5.08533e-08
3.50506e-07
1.35595e-06
3.23068e-06
4.40527e-06
5.14936e-08
3.5332e-07
1.36174e-06
3.28304e-06
4.63986e-06
5.23491e-08
3.58432e-07
1.38078e-06
3.37582e-06
4.92065e-06
5.28071e-08
3.59979e-07
1.39182e-06
3.4536e-06
5.14242e-06
5.33601e-08
3.63451e-07
1.40323e-06
3.49655e-06
5.25901e-06
)
;

boundaryField
{
    fuel
    {
        type            fixedValue;
        value           uniform 0;
    }
    air
    {
        type            fixedValue;
        value           nonuniform List<scalar> 0();
    }
    outlet
    {
        type            inletOutlet;
        inletValue      uniform 0;
        value           nonuniform List<scalar> 5(5.08533e-08 3.50506e-07 1.35595e-06 3.23068e-06 4.40527e-06);
    }
    frontAndBack
    {
        type            empty;
    }
    procBoundary0to1
    {
        type            processor;
        value           nonuniform List<scalar> 5(4.81771e-06 5.2693e-06 5.79933e-06 6.20712e-06 6.39745e-06);
    }
    procBoundary0to2
    {
        type            processor;
        value           nonuniform List<scalar> 5(5.33561e-08 3.63433e-07 1.40319e-06 3.49645e-06 5.25871e-06);
    }
}


// ************************************************************************* //
