/*--------------------------------*- C++ -*----------------------------------*\
  =========                 |
  \\      /  F ield         | OpenFOAM: The Open Source CFD Toolbox
   \\    /   O peration     | Website:  https://openfoam.org
    \\  /    A nd           | Version:  8
     \\/     M anipulation  |
\*---------------------------------------------------------------------------*/
FoamFile
{
    version     2.0;
    format      ascii;
    class       volScalarField;
    location    "0.15";
    object      HNCO;
}
// * * * * * * * * * * * * * * * * * * * * * * * * * * * * * * * * * * * * * //

dimensions      [0 0 0 0 0 0 0];

internalField   nonuniform List<scalar> 
25
(
7.63532e-09
5.2578e-08
1.79909e-07
3.41772e-07
4.16871e-07
7.65168e-09
5.23195e-08
1.76498e-07
3.30771e-07
3.98012e-07
7.6955e-09
5.23542e-08
1.74418e-07
3.22177e-07
3.81488e-07
7.69513e-09
5.2007e-08
1.72319e-07
3.16636e-07
3.73337e-07
7.73682e-09
5.21692e-08
1.71758e-07
3.14029e-07
3.70212e-07
)
;

boundaryField
{
    fuel
    {
        type            fixedValue;
        value           uniform 0;
    }
    air
    {
        type            fixedValue;
        value           nonuniform List<scalar> 0();
    }
    outlet
    {
        type            inletOutlet;
        inletValue      uniform 0;
        value           nonuniform List<scalar> 5(7.63532e-09 5.2578e-08 1.79909e-07 3.41772e-07 4.16871e-07);
    }
    frontAndBack
    {
        type            empty;
    }
    procBoundary0to1
    {
        type            processor;
        value           nonuniform List<scalar> 5(4.67695e-07 4.29652e-07 4.06476e-07 3.97637e-07 3.92324e-07);
    }
    procBoundary0to2
    {
        type            processor;
        value           nonuniform List<scalar> 5(7.73677e-09 5.21724e-08 1.71793e-07 3.14117e-07 3.70189e-07);
    }
}


// ************************************************************************* //
