/*--------------------------------*- C++ -*----------------------------------*\
  =========                 |
  \\      /  F ield         | OpenFOAM: The Open Source CFD Toolbox
   \\    /   O peration     | Website:  https://openfoam.org
    \\  /    A nd           | Version:  8
     \\/     M anipulation  |
\*---------------------------------------------------------------------------*/
FoamFile
{
    version     2.0;
    format      ascii;
    class       volScalarField;
    location    "0.15";
    object      HNO;
}
// * * * * * * * * * * * * * * * * * * * * * * * * * * * * * * * * * * * * * //

dimensions      [0 0 0 0 0 0 0];

internalField   nonuniform List<scalar> 
25
(
1.7867e-12
1.36132e-11
4.51672e-11
2.27944e-11
9.64965e-11
1.79473e-12
1.36468e-11
4.52567e-11
2.27252e-11
1.02182e-10
1.81029e-12
1.37575e-11
4.54404e-11
2.22696e-11
1.00087e-10
1.81327e-12
1.37471e-11
4.55635e-11
2.23347e-11
1.02982e-10
1.82141e-12
1.37998e-11
4.5534e-11
2.22914e-11
1.02736e-10
)
;

boundaryField
{
    fuel
    {
        type            fixedValue;
        value           uniform 0;
    }
    air
    {
        type            fixedValue;
        value           nonuniform List<scalar> 0();
    }
    outlet
    {
        type            inletOutlet;
        inletValue      uniform 0;
        value           nonuniform List<scalar> 5(1.7867e-12 1.36132e-11 4.51672e-11 2.27944e-11 9.64965e-11);
    }
    frontAndBack
    {
        type            empty;
    }
    procBoundary0to1
    {
        type            processor;
        value           nonuniform List<scalar> 5(4.89751e-10 5.2838e-10 5.51409e-10 5.69007e-10 5.65109e-10);
    }
    procBoundary0to2
    {
        type            processor;
        value           nonuniform List<scalar> 5(1.8208e-12 1.37942e-11 4.5545e-11 2.22492e-11 1.02299e-10);
    }
}


// ************************************************************************* //
