/*--------------------------------*- C++ -*----------------------------------*\
  =========                 |
  \\      /  F ield         | OpenFOAM: The Open Source CFD Toolbox
   \\    /   O peration     | Website:  https://openfoam.org
    \\  /    A nd           | Version:  8
     \\/     M anipulation  |
\*---------------------------------------------------------------------------*/
FoamFile
{
    version     2.0;
    format      ascii;
    class       volScalarField;
    location    "0.15";
    object      NH2;
}
// * * * * * * * * * * * * * * * * * * * * * * * * * * * * * * * * * * * * * //

dimensions      [0 0 0 0 0 0 0];

internalField   nonuniform List<scalar> 
25
(
8.00002e-13
6.36602e-12
2.7256e-11
2.05071e-10
1.87475e-09
8.07346e-13
6.43196e-12
2.77027e-11
2.06623e-10
2.00286e-09
8.18211e-13
6.53747e-12
2.83424e-11
2.11814e-10
2.08837e-09
8.22225e-13
6.57468e-12
2.88802e-11
2.17384e-10
2.15588e-09
8.26442e-13
6.61441e-12
2.9067e-11
2.17807e-10
2.1671e-09
)
;

boundaryField
{
    fuel
    {
        type            fixedValue;
        value           uniform 0;
    }
    air
    {
        type            fixedValue;
        value           nonuniform List<scalar> 0();
    }
    outlet
    {
        type            inletOutlet;
        inletValue      uniform 0;
        value           nonuniform List<scalar> 5(8.00002e-13 6.36602e-12 2.7256e-11 2.05071e-10 1.87475e-09);
    }
    frontAndBack
    {
        type            empty;
    }
    procBoundary0to1
    {
        type            processor;
        value           nonuniform List<scalar> 5(1.04636e-08 1.11866e-08 1.1534e-08 1.187e-08 1.18961e-08);
    }
    procBoundary0to2
    {
        type            processor;
        value           nonuniform List<scalar> 5(8.26396e-13 6.61413e-12 2.90519e-11 2.17154e-10 2.16134e-09);
    }
}


// ************************************************************************* //
