/*--------------------------------*- C++ -*----------------------------------*\
  =========                 |
  \\      /  F ield         | OpenFOAM: The Open Source CFD Toolbox
   \\    /   O peration     | Website:  https://openfoam.org
    \\  /    A nd           | Version:  8
     \\/     M anipulation  |
\*---------------------------------------------------------------------------*/
FoamFile
{
    version     2.0;
    format      ascii;
    class       volScalarField;
    location    "0.15";
    object      O;
}
// * * * * * * * * * * * * * * * * * * * * * * * * * * * * * * * * * * * * * //

dimensions      [0 0 0 0 0 0 0];

internalField   nonuniform List<scalar> 
25
(
3.7459e-12
1.23377e-10
6.42702e-09
1.70897e-07
1.60544e-06
3.47129e-12
1.13419e-10
5.89071e-09
1.57238e-07
1.55515e-06
3.29059e-12
1.06169e-10
5.47814e-09
1.4559e-07
1.44698e-06
3.18698e-12
1.02636e-10
5.3013e-09
1.41547e-07
1.41379e-06
3.13073e-12
9.93937e-11
5.11358e-09
1.36189e-07
1.35972e-06
)
;

boundaryField
{
    fuel
    {
        type            fixedValue;
        value           uniform 0;
    }
    air
    {
        type            fixedValue;
        value           nonuniform List<scalar> 0();
    }
    outlet
    {
        type            inletOutlet;
        inletValue      uniform 0;
        value           nonuniform List<scalar> 5(3.7459e-12 1.23377e-10 6.42702e-09 1.70897e-07 1.60544e-06);
    }
    frontAndBack
    {
        type            empty;
    }
    procBoundary0to1
    {
        type            processor;
        value           nonuniform List<scalar> 5(9.3294e-06 8.93576e-06 8.07638e-06 7.87502e-06 7.50827e-06);
    }
    procBoundary0to2
    {
        type            processor;
        value           nonuniform List<scalar> 5(3.13077e-12 9.93778e-11 5.11257e-09 1.36162e-07 1.3595e-06);
    }
}


// ************************************************************************* //
