/*--------------------------------*- C++ -*----------------------------------*\
  =========                 |
  \\      /  F ield         | OpenFOAM: The Open Source CFD Toolbox
   \\    /   O peration     | Website:  https://openfoam.org
    \\  /    A nd           | Version:  8
     \\/     M anipulation  |
\*---------------------------------------------------------------------------*/
FoamFile
{
    version     2.0;
    format      ascii;
    class       volScalarField;
    location    "0.2";
    object      C2H5;
}
// * * * * * * * * * * * * * * * * * * * * * * * * * * * * * * * * * * * * * //

dimensions      [0 0 0 0 0 0 0];

internalField   nonuniform List<scalar> 
25
(
7.75594e-11
6.24785e-10
4.03021e-09
1.06655e-08
7.63007e-08
7.75761e-11
6.25365e-10
4.04694e-09
1.0668e-08
7.72257e-08
7.79566e-11
6.28817e-10
4.059e-09
1.06362e-08
7.96092e-08
7.82153e-11
6.32131e-10
4.1165e-09
1.06633e-08
8.48305e-08
7.90999e-11
6.43037e-10
4.22085e-09
1.05696e-08
8.91029e-08
)
;

boundaryField
{
    fuel
    {
        type            fixedValue;
        value           uniform 0;
    }
    air
    {
        type            fixedValue;
        value           nonuniform List<scalar> 0();
    }
    outlet
    {
        type            inletOutlet;
        inletValue      uniform 0;
        value           nonuniform List<scalar> 5(7.90999e-11 6.43037e-10 4.22085e-09 1.05696e-08 8.91029e-08);
    }
    frontAndBack
    {
        type            empty;
    }
    procBoundary2to0
    {
        type            processor;
        value           nonuniform List<scalar> 5(7.75953e-11 6.24983e-10 4.03096e-09 1.06661e-08 7.63e-08);
    }
    procBoundary2to3
    {
        type            processor;
        value           nonuniform List<scalar> 5(1.59737e-07 1.6771e-07 1.91141e-07 2.43289e-07 3.15801e-07);
    }
}


// ************************************************************************* //
