/*--------------------------------*- C++ -*----------------------------------*\
  =========                 |
  \\      /  F ield         | OpenFOAM: The Open Source CFD Toolbox
   \\    /   O peration     | Website:  https://openfoam.org
    \\  /    A nd           | Version:  8
     \\/     M anipulation  |
\*---------------------------------------------------------------------------*/
FoamFile
{
    version     2.0;
    format      ascii;
    class       volScalarField;
    location    "0.2";
    object      C3H7;
}
// * * * * * * * * * * * * * * * * * * * * * * * * * * * * * * * * * * * * * //

dimensions      [0 0 0 0 0 0 0];

internalField   nonuniform List<scalar> 
25
(
3.34673e-11
2.51837e-10
1.54389e-09
3.6337e-10
5.85785e-11
3.37351e-11
2.54422e-10
1.56635e-09
3.62911e-10
5.86719e-11
3.4613e-11
2.63514e-10
1.64025e-09
3.64069e-10
5.88947e-11
3.55125e-11
2.72624e-10
1.72299e-09
3.63852e-10
6.01784e-11
3.66594e-11
2.85424e-10
1.85011e-09
3.46106e-10
8.30026e-11
)
;

boundaryField
{
    fuel
    {
        type            fixedValue;
        value           uniform 0;
    }
    air
    {
        type            fixedValue;
        value           nonuniform List<scalar> 0();
    }
    outlet
    {
        type            inletOutlet;
        inletValue      uniform 0;
        value           nonuniform List<scalar> 5(3.66594e-11 2.85424e-10 1.85011e-09 3.46106e-10 8.30026e-11);
    }
    frontAndBack
    {
        type            empty;
    }
    procBoundary2to0
    {
        type            processor;
        value           nonuniform List<scalar> 5(3.34866e-11 2.51936e-10 1.54425e-09 3.63402e-10 5.85826e-11);
    }
    procBoundary2to3
    {
        type            processor;
        value           nonuniform List<scalar> 5(2.65182e-11 2.7878e-11 3.24822e-11 4.54199e-11 6.92031e-11);
    }
}


// ************************************************************************* //
