/*--------------------------------*- C++ -*----------------------------------*\
  =========                 |
  \\      /  F ield         | OpenFOAM: The Open Source CFD Toolbox
   \\    /   O peration     | Website:  https://openfoam.org
    \\  /    A nd           | Version:  8
     \\/     M anipulation  |
\*---------------------------------------------------------------------------*/
FoamFile
{
    version     2.0;
    format      ascii;
    class       volScalarField;
    location    "0.2";
    object      CH2CHO;
}
// * * * * * * * * * * * * * * * * * * * * * * * * * * * * * * * * * * * * * //

dimensions      [0 0 0 0 0 0 0];

internalField   nonuniform List<scalar> 
25
(
7.61741e-11
7.17351e-10
9.80801e-09
1.00443e-08
9.9224e-10
7.63054e-11
7.20883e-10
9.89128e-09
1.00109e-08
9.95169e-10
7.66538e-11
7.29622e-10
1.00318e-08
9.96128e-09
1.01176e-09
7.72553e-11
7.42823e-10
1.03199e-08
9.90685e-09
1.10597e-09
7.93155e-11
7.70527e-10
1.08098e-08
9.3494e-09
1.92824e-09
)
;

boundaryField
{
    fuel
    {
        type            fixedValue;
        value           uniform 0;
    }
    air
    {
        type            fixedValue;
        value           nonuniform List<scalar> 0();
    }
    outlet
    {
        type            inletOutlet;
        inletValue      uniform 0;
        value           nonuniform List<scalar> 5(7.93155e-11 7.70527e-10 1.08098e-08 9.3494e-09 1.92824e-09);
    }
    frontAndBack
    {
        type            empty;
    }
    procBoundary2to0
    {
        type            processor;
        value           nonuniform List<scalar> 5(7.61903e-11 7.17464e-10 9.80886e-09 1.00441e-08 9.92222e-10);
    }
    procBoundary2to3
    {
        type            processor;
        value           nonuniform List<scalar> 5(6.09921e-10 6.32426e-10 7.10871e-10 9.48015e-10 1.45203e-09);
    }
}


// ************************************************************************* //
