/*--------------------------------*- C++ -*----------------------------------*\
  =========                 |
  \\      /  F ield         | OpenFOAM: The Open Source CFD Toolbox
   \\    /   O peration     | Website:  https://openfoam.org
    \\  /    A nd           | Version:  8
     \\/     M anipulation  |
\*---------------------------------------------------------------------------*/
FoamFile
{
    version     2.0;
    format      ascii;
    class       volScalarField;
    location    "0.2";
    object      CH2CO;
}
// * * * * * * * * * * * * * * * * * * * * * * * * * * * * * * * * * * * * * //

dimensions      [0 0 0 0 0 0 0];

internalField   nonuniform List<scalar> 
25
(
8.22579e-07
6.2555e-06
2.60102e-05
6.35791e-05
8.33645e-05
8.24589e-07
6.27572e-06
2.62632e-05
6.46712e-05
8.51383e-05
8.35488e-07
6.38473e-06
2.68911e-05
6.68255e-05
8.91107e-05
8.43398e-07
6.4614e-06
2.7598e-05
6.99489e-05
9.56572e-05
8.54512e-07
6.58061e-06
2.85199e-05
7.32291e-05
9.95798e-05
)
;

boundaryField
{
    fuel
    {
        type            fixedValue;
        value           uniform 0;
    }
    air
    {
        type            fixedValue;
        value           nonuniform List<scalar> 0();
    }
    outlet
    {
        type            inletOutlet;
        inletValue      uniform 0;
        value           nonuniform List<scalar> 5(8.54512e-07 6.58061e-06 2.85199e-05 7.32291e-05 9.95798e-05);
    }
    frontAndBack
    {
        type            empty;
    }
    procBoundary2to0
    {
        type            processor;
        value           nonuniform List<scalar> 5(8.2282e-07 6.25684e-06 2.60129e-05 6.35813e-05 8.33642e-05);
    }
    procBoundary2to3
    {
        type            processor;
        value           nonuniform List<scalar> 5(4.58094e-05 4.72357e-05 5.12819e-05 6.06699e-05 7.57742e-05);
    }
}


// ************************************************************************* //
