/*--------------------------------*- C++ -*----------------------------------*\
  =========                 |
  \\      /  F ield         | OpenFOAM: The Open Source CFD Toolbox
   \\    /   O peration     | Website:  https://openfoam.org
    \\  /    A nd           | Version:  8
     \\/     M anipulation  |
\*---------------------------------------------------------------------------*/
FoamFile
{
    version     2.0;
    format      ascii;
    class       volScalarField;
    location    "0.2";
    object      H2O2;
}
// * * * * * * * * * * * * * * * * * * * * * * * * * * * * * * * * * * * * * //

dimensions      [0 0 0 0 0 0 0];

internalField   nonuniform List<scalar> 
25
(
5.93011e-09
5.05394e-08
2.31493e-07
5.46376e-07
2.89735e-07
5.94105e-09
5.06475e-08
2.3323e-07
5.55235e-07
3.01313e-07
6.01491e-09
5.14185e-08
2.37678e-07
5.71531e-07
3.23603e-07
6.06182e-09
5.18767e-08
2.42234e-07
5.92455e-07
3.46921e-07
6.13763e-09
5.27333e-08
2.49166e-07
6.18322e-07
3.49757e-07
)
;

boundaryField
{
    fuel
    {
        type            fixedValue;
        value           uniform 0;
    }
    air
    {
        type            fixedValue;
        value           nonuniform List<scalar> 0();
    }
    outlet
    {
        type            inletOutlet;
        inletValue      uniform 0;
        value           nonuniform List<scalar> 5(6.13763e-09 5.27333e-08 2.49166e-07 6.18322e-07 3.49757e-07);
    }
    frontAndBack
    {
        type            empty;
    }
    procBoundary2to0
    {
        type            processor;
        value           nonuniform List<scalar> 5(5.93064e-09 5.05431e-08 2.31508e-07 5.46411e-07 2.8978e-07);
    }
    procBoundary2to3
    {
        type            processor;
        value           nonuniform List<scalar> 5(9.25772e-07 9.92191e-07 1.1332e-06 1.29288e-06 1.37196e-06);
    }
}


// ************************************************************************* //
