/*--------------------------------*- C++ -*----------------------------------*\
  =========                 |
  \\      /  F ield         | OpenFOAM: The Open Source CFD Toolbox
   \\    /   O peration     | Website:  https://openfoam.org
    \\  /    A nd           | Version:  8
     \\/     M anipulation  |
\*---------------------------------------------------------------------------*/
FoamFile
{
    version     2.0;
    format      ascii;
    class       volScalarField;
    location    "0.2";
    object      HCCO;
}
// * * * * * * * * * * * * * * * * * * * * * * * * * * * * * * * * * * * * * //

dimensions      [0 0 0 0 0 0 0];

internalField   nonuniform List<scalar> 
25
(
3.35625e-13
1.30003e-11
6.26435e-10
1.53956e-08
1.43811e-07
3.43786e-13
1.34084e-11
6.47891e-10
1.59386e-08
1.48378e-07
3.64486e-13
1.44833e-11
7.01808e-10
1.72636e-08
1.60812e-07
4.02275e-13
1.66048e-11
8.14684e-10
2.02403e-08
1.88345e-07
4.64296e-13
2.01863e-11
1.00478e-09
2.52744e-08
2.29422e-07
)
;

boundaryField
{
    fuel
    {
        type            fixedValue;
        value           uniform 0;
    }
    air
    {
        type            fixedValue;
        value           nonuniform List<scalar> 0();
    }
    outlet
    {
        type            inletOutlet;
        inletValue      uniform 0;
        value           nonuniform List<scalar> 5(4.64296e-13 2.01863e-11 1.00478e-09 2.52744e-08 2.29422e-07);
    }
    frontAndBack
    {
        type            empty;
    }
    procBoundary2to0
    {
        type            processor;
        value           nonuniform List<scalar> 5(3.35605e-13 1.30001e-11 6.26428e-10 1.53953e-08 1.43806e-07);
    }
    procBoundary2to3
    {
        type            processor;
        value           nonuniform List<scalar> 5(7.4481e-07 7.69852e-07 8.44808e-07 1.02416e-06 1.27572e-06);
    }
}


// ************************************************************************* //
