/*--------------------------------*- C++ -*----------------------------------*\
  =========                 |
  \\      /  F ield         | OpenFOAM: The Open Source CFD Toolbox
   \\    /   O peration     | Website:  https://openfoam.org
    \\  /    A nd           | Version:  8
     \\/     M anipulation  |
\*---------------------------------------------------------------------------*/
FoamFile
{
    version     2.0;
    format      ascii;
    class       volScalarField;
    location    "0.2";
    object      HCN;
}
// * * * * * * * * * * * * * * * * * * * * * * * * * * * * * * * * * * * * * //

dimensions      [0 0 0 0 0 0 0];

internalField   nonuniform List<scalar> 
25
(
3.84738e-08
3.23883e-07
1.54544e-06
4.18794e-06
6.20301e-06
3.81696e-08
3.20914e-07
1.53183e-06
4.13693e-06
6.07294e-06
3.80378e-08
3.19892e-07
1.51882e-06
4.04611e-06
5.82522e-06
3.76185e-08
3.15622e-07
1.4959e-06
3.9349e-06
5.50768e-06
3.74116e-08
3.14019e-07
1.48983e-06
3.87083e-06
5.22679e-06
)
;

boundaryField
{
    fuel
    {
        type            fixedValue;
        value           uniform 0;
    }
    air
    {
        type            fixedValue;
        value           nonuniform List<scalar> 0();
    }
    outlet
    {
        type            inletOutlet;
        inletValue      uniform 0;
        value           nonuniform List<scalar> 5(3.74116e-08 3.14019e-07 1.48983e-06 3.87083e-06 5.22679e-06);
    }
    frontAndBack
    {
        type            empty;
    }
    procBoundary2to0
    {
        type            processor;
        value           nonuniform List<scalar> 5(3.8474e-08 3.23882e-07 1.54543e-06 4.18797e-06 6.20314e-06);
    }
    procBoundary2to3
    {
        type            processor;
        value           nonuniform List<scalar> 5(7.29898e-06 7.09135e-06 6.65451e-06 6.0784e-06 5.53866e-06);
    }
}


// ************************************************************************* //
