/*--------------------------------*- C++ -*----------------------------------*\
  =========                 |
  \\      /  F ield         | OpenFOAM: The Open Source CFD Toolbox
   \\    /   O peration     | Website:  https://openfoam.org
    \\  /    A nd           | Version:  8
     \\/     M anipulation  |
\*---------------------------------------------------------------------------*/
FoamFile
{
    version     2.0;
    format      ascii;
    class       volScalarField;
    location    "0.2";
    object      HCNN;
}
// * * * * * * * * * * * * * * * * * * * * * * * * * * * * * * * * * * * * * //

dimensions      [0 0 0 0 0 0 0];

internalField   nonuniform List<scalar> 
25
(
1.54172e-18
1.17291e-16
5.94305e-15
1.49968e-13
1.41244e-12
1.54362e-18
1.17567e-16
5.96391e-15
1.50438e-13
1.41142e-12
1.56496e-18
1.19017e-16
6.01604e-15
1.50942e-13
1.4112e-12
1.59883e-18
1.2184e-16
6.16893e-15
1.54575e-13
1.42788e-12
1.68401e-18
1.28506e-16
6.49989e-15
1.61875e-13
1.41923e-12
)
;

boundaryField
{
    fuel
    {
        type            fixedValue;
        value           uniform 0;
    }
    air
    {
        type            fixedValue;
        value           nonuniform List<scalar> 0();
    }
    outlet
    {
        type            inletOutlet;
        inletValue      uniform 0;
        value           nonuniform List<scalar> 5(1.68401e-18 1.28506e-16 6.49989e-15 1.61875e-13 1.41923e-12);
    }
    frontAndBack
    {
        type            empty;
    }
    procBoundary2to0
    {
        type            processor;
        value           nonuniform List<scalar> 5(1.54175e-18 1.17292e-16 5.94312e-15 1.49969e-13 1.41244e-12);
    }
    procBoundary2to3
    {
        type            processor;
        value           nonuniform List<scalar> 5(7.4604e-12 7.46626e-12 7.51492e-12 7.73745e-12 7.77475e-12);
    }
}


// ************************************************************************* //
