/*--------------------------------*- C++ -*----------------------------------*\
  =========                 |
  \\      /  F ield         | OpenFOAM: The Open Source CFD Toolbox
   \\    /   O peration     | Website:  https://openfoam.org
    \\  /    A nd           | Version:  8
     \\/     M anipulation  |
\*---------------------------------------------------------------------------*/
FoamFile
{
    version     2.0;
    format      ascii;
    class       volScalarField;
    location    "0.2";
    object      HCNO;
}
// * * * * * * * * * * * * * * * * * * * * * * * * * * * * * * * * * * * * * //

dimensions      [0 0 0 0 0 0 0];

internalField   nonuniform List<scalar> 
25
(
7.07619e-10
4.43384e-09
1.41658e-08
2.7659e-08
3.47852e-08
7.0739e-10
4.43392e-09
1.4252e-08
2.80066e-08
3.52659e-08
7.12921e-10
4.48701e-09
1.45104e-08
2.87654e-08
3.65249e-08
7.15794e-10
4.51455e-09
1.48116e-08
3.00274e-08
3.91788e-08
7.20946e-10
4.5704e-09
1.52533e-08
3.16614e-08
4.25397e-08
)
;

boundaryField
{
    fuel
    {
        type            fixedValue;
        value           uniform 0;
    }
    air
    {
        type            fixedValue;
        value           nonuniform List<scalar> 0();
    }
    outlet
    {
        type            inletOutlet;
        inletValue      uniform 0;
        value           nonuniform List<scalar> 5(7.20946e-10 4.5704e-09 1.52533e-08 3.16614e-08 4.25397e-08);
    }
    frontAndBack
    {
        type            empty;
    }
    procBoundary2to0
    {
        type            processor;
        value           nonuniform List<scalar> 5(7.07618e-10 4.43383e-09 1.41659e-08 2.76594e-08 3.47855e-08);
    }
    procBoundary2to3
    {
        type            processor;
        value           nonuniform List<scalar> 5(2.62295e-08 2.64973e-08 2.76231e-08 3.14926e-08 3.84522e-08);
    }
}


// ************************************************************************* //
