/*--------------------------------*- C++ -*----------------------------------*\
  =========                 |
  \\      /  F ield         | OpenFOAM: The Open Source CFD Toolbox
   \\    /   O peration     | Website:  https://openfoam.org
    \\  /    A nd           | Version:  8
     \\/     M anipulation  |
\*---------------------------------------------------------------------------*/
FoamFile
{
    version     2.0;
    format      ascii;
    class       volScalarField;
    location    "0.2";
    object      HCO;
}
// * * * * * * * * * * * * * * * * * * * * * * * * * * * * * * * * * * * * * //

dimensions      [0 0 0 0 0 0 0];

internalField   nonuniform List<scalar> 
25
(
3.71044e-13
3.99238e-12
8.10113e-11
8.05241e-10
6.42995e-09
3.71794e-13
4.01212e-12
8.16275e-11
8.10804e-10
6.43937e-09
3.73783e-13
4.06677e-12
8.28431e-11
8.20884e-10
6.47605e-09
3.77175e-13
4.15099e-12
8.54663e-11
8.52614e-10
6.64189e-09
3.87704e-13
4.31687e-12
8.97028e-11
8.89297e-10
6.50078e-09
)
;

boundaryField
{
    fuel
    {
        type            fixedValue;
        value           uniform 0;
    }
    air
    {
        type            fixedValue;
        value           nonuniform List<scalar> 0();
    }
    outlet
    {
        type            inletOutlet;
        inletValue      uniform 0;
        value           nonuniform List<scalar> 5(3.87704e-13 4.31687e-12 8.97028e-11 8.89297e-10 6.50078e-09);
    }
    frontAndBack
    {
        type            empty;
    }
    procBoundary2to0
    {
        type            processor;
        value           nonuniform List<scalar> 5(3.7112e-13 3.99286e-12 8.10151e-11 8.05249e-10 6.43e-09);
    }
    procBoundary2to3
    {
        type            processor;
        value           nonuniform List<scalar> 5(2.5601e-08 2.57025e-08 2.61466e-08 2.77813e-08 3.0118e-08);
    }
}


// ************************************************************************* //
