/*--------------------------------*- C++ -*----------------------------------*\
  =========                 |
  \\      /  F ield         | OpenFOAM: The Open Source CFD Toolbox
   \\    /   O peration     | Website:  https://openfoam.org
    \\  /    A nd           | Version:  8
     \\/     M anipulation  |
\*---------------------------------------------------------------------------*/
FoamFile
{
    version     2.0;
    format      ascii;
    class       volScalarField;
    location    "0.2";
    object      HNCO;
}
// * * * * * * * * * * * * * * * * * * * * * * * * * * * * * * * * * * * * * //

dimensions      [0 0 0 0 0 0 0];

internalField   nonuniform List<scalar> 
25
(
3.63445e-09
2.60107e-08
1.01408e-07
2.36844e-07
3.27454e-07
3.62875e-09
2.59551e-08
1.01486e-07
2.3719e-07
3.26452e-07
3.6521e-09
2.61786e-08
1.0238e-07
2.38461e-07
3.26239e-07
3.6593e-09
2.6229e-08
1.03256e-07
2.41606e-07
3.30576e-07
3.68168e-09
2.64732e-08
1.05256e-07
2.48098e-07
3.40724e-07
)
;

boundaryField
{
    fuel
    {
        type            fixedValue;
        value           uniform 0;
    }
    air
    {
        type            fixedValue;
        value           nonuniform List<scalar> 0();
    }
    outlet
    {
        type            inletOutlet;
        inletValue      uniform 0;
        value           nonuniform List<scalar> 5(3.68168e-09 2.64732e-08 1.05256e-07 2.48098e-07 3.40724e-07);
    }
    frontAndBack
    {
        type            empty;
    }
    procBoundary2to0
    {
        type            processor;
        value           nonuniform List<scalar> 5(3.6343e-09 2.60098e-08 1.01406e-07 2.36845e-07 3.27458e-07);
    }
    procBoundary2to3
    {
        type            processor;
        value           nonuniform List<scalar> 5(3.77063e-07 3.74298e-07 3.71986e-07 3.80716e-07 4.03979e-07);
    }
}


// ************************************************************************* //
