/*--------------------------------*- C++ -*----------------------------------*\
  =========                 |
  \\      /  F ield         | OpenFOAM: The Open Source CFD Toolbox
   \\    /   O peration     | Website:  https://openfoam.org
    \\  /    A nd           | Version:  8
     \\/     M anipulation  |
\*---------------------------------------------------------------------------*/
FoamFile
{
    version     2.0;
    format      ascii;
    class       volScalarField;
    location    "0.2";
    object      NCO;
}
// * * * * * * * * * * * * * * * * * * * * * * * * * * * * * * * * * * * * * //

dimensions      [0 0 0 0 0 0 0];

internalField   nonuniform List<scalar> 
25
(
9.85971e-15
9.89035e-14
7.3504e-13
4.54406e-12
4.24883e-11
9.60502e-15
9.60708e-14
7.13229e-13
4.43535e-12
4.12559e-11
9.2121e-15
9.15051e-14
6.70878e-13
4.21757e-12
3.89019e-11
8.71018e-15
8.59027e-14
6.28573e-13
4.05076e-12
3.6706e-11
8.34472e-15
8.20359e-14
6.0266e-13
4.06672e-12
3.50214e-11
)
;

boundaryField
{
    fuel
    {
        type            fixedValue;
        value           uniform 0;
    }
    air
    {
        type            fixedValue;
        value           nonuniform List<scalar> 0();
    }
    outlet
    {
        type            inletOutlet;
        inletValue      uniform 0;
        value           nonuniform List<scalar> 5(8.34472e-15 8.20359e-14 6.0266e-13 4.06672e-12 3.50214e-11);
    }
    frontAndBack
    {
        type            empty;
    }
    procBoundary2to0
    {
        type            processor;
        value           nonuniform List<scalar> 5(9.85976e-15 9.89061e-14 7.35062e-13 4.54424e-12 4.24899e-11);
    }
    procBoundary2to3
    {
        type            processor;
        value           nonuniform List<scalar> 5(2.13276e-10 2.07094e-10 1.9535e-10 1.86247e-10 1.82363e-10);
    }
}


// ************************************************************************* //
