/*--------------------------------*- C++ -*----------------------------------*\
  =========                 |
  \\      /  F ield         | OpenFOAM: The Open Source CFD Toolbox
   \\    /   O peration     | Website:  https://openfoam.org
    \\  /    A nd           | Version:  8
     \\/     M anipulation  |
\*---------------------------------------------------------------------------*/
FoamFile
{
    version     2.0;
    format      ascii;
    class       volScalarField;
    location    "0.2";
    object      NH2;
}
// * * * * * * * * * * * * * * * * * * * * * * * * * * * * * * * * * * * * * //

dimensions      [0 0 0 0 0 0 0];

internalField   nonuniform List<scalar> 
25
(
7.60399e-13
6.44838e-12
3.0974e-11
2.51038e-10
2.3532e-09
7.51627e-13
6.35572e-12
3.04387e-11
2.46272e-10
2.29761e-09
7.41285e-13
6.23565e-12
2.92444e-11
2.35448e-10
2.17995e-09
7.25031e-13
6.05613e-12
2.80602e-11
2.25166e-10
2.04356e-09
7.14505e-13
5.94811e-12
2.7424e-11
2.25065e-10
1.93934e-09
)
;

boundaryField
{
    fuel
    {
        type            fixedValue;
        value           uniform 0;
    }
    air
    {
        type            fixedValue;
        value           nonuniform List<scalar> 0();
    }
    outlet
    {
        type            inletOutlet;
        inletValue      uniform 0;
        value           nonuniform List<scalar> 5(7.14505e-13 5.94811e-12 2.7424e-11 2.25065e-10 1.93934e-09);
    }
    frontAndBack
    {
        type            empty;
    }
    procBoundary2to0
    {
        type            processor;
        value           nonuniform List<scalar> 5(7.60388e-13 6.4484e-12 3.09745e-11 2.51046e-10 2.35328e-09);
    }
    procBoundary2to3
    {
        type            processor;
        value           nonuniform List<scalar> 5(1.23242e-08 1.20395e-08 1.14376e-08 1.07766e-08 1.03409e-08);
    }
}


// ************************************************************************* //
