/*--------------------------------*- C++ -*----------------------------------*\
  =========                 |
  \\      /  F ield         | OpenFOAM: The Open Source CFD Toolbox
   \\    /   O peration     | Website:  https://openfoam.org
    \\  /    A nd           | Version:  8
     \\/     M anipulation  |
\*---------------------------------------------------------------------------*/
FoamFile
{
    version     2.0;
    format      ascii;
    class       volScalarField;
    location    "0.2";
    object      NNH;
}
// * * * * * * * * * * * * * * * * * * * * * * * * * * * * * * * * * * * * * //

dimensions      [0 0 0 0 0 0 0];

internalField   nonuniform List<scalar> 
25
(
3.67769e-17
2.79863e-15
1.41852e-13
3.58162e-12
3.37598e-11
3.61391e-17
2.75276e-15
1.39624e-13
3.52179e-12
3.30484e-11
3.51594e-17
2.67227e-15
1.3481e-13
3.37215e-12
3.14096e-11
3.38097e-17
2.57104e-15
1.2948e-13
3.21642e-12
2.93453e-11
3.39038e-17
2.58028e-15
1.29707e-13
3.19868e-12
2.76553e-11
)
;

boundaryField
{
    fuel
    {
        type            fixedValue;
        value           uniform 0;
    }
    air
    {
        type            fixedValue;
        value           nonuniform List<scalar> 0();
    }
    outlet
    {
        type            inletOutlet;
        inletValue      uniform 0;
        value           nonuniform List<scalar> 5(3.39038e-17 2.58028e-15 1.29707e-13 3.19868e-12 2.76553e-11);
    }
    frontAndBack
    {
        type            empty;
    }
    procBoundary2to0
    {
        type            processor;
        value           nonuniform List<scalar> 5(3.6778e-17 2.79872e-15 1.41856e-13 3.58171e-12 3.37607e-11);
    }
    procBoundary2to3
    {
        type            processor;
        value           nonuniform List<scalar> 5(1.7749e-10 1.73953e-10 1.65667e-10 1.55491e-10 1.48102e-10);
    }
}


// ************************************************************************* //
