/*--------------------------------*- C++ -*----------------------------------*\
  =========                 |
  \\      /  F ield         | OpenFOAM: The Open Source CFD Toolbox
   \\    /   O peration     | Website:  https://openfoam.org
    \\  /    A nd           | Version:  8
     \\/     M anipulation  |
\*---------------------------------------------------------------------------*/
FoamFile
{
    version     2.0;
    format      ascii;
    class       volScalarField;
    location    "0.2";
    object      O;
}
// * * * * * * * * * * * * * * * * * * * * * * * * * * * * * * * * * * * * * //

dimensions      [0 0 0 0 0 0 0];

internalField   nonuniform List<scalar> 
25
(
3.8764e-12
1.11435e-10
5.33187e-09
1.33203e-07
1.25278e-06
3.92188e-12
1.13026e-10
5.4189e-09
1.35412e-07
1.2693e-06
4.03788e-12
1.17003e-10
5.61185e-09
1.39785e-07
1.30888e-06
4.22895e-12
1.23547e-10
5.95858e-09
1.48603e-07
1.37799e-06
4.56068e-12
1.34985e-10
6.54464e-09
1.62976e-07
1.44435e-06
)
;

boundaryField
{
    fuel
    {
        type            fixedValue;
        value           uniform 0;
    }
    air
    {
        type            fixedValue;
        value           nonuniform List<scalar> 0();
    }
    outlet
    {
        type            inletOutlet;
        inletValue      uniform 0;
        value           nonuniform List<scalar> 5(4.56068e-12 1.34985e-10 6.54464e-09 1.62976e-07 1.44435e-06);
    }
    frontAndBack
    {
        type            empty;
    }
    procBoundary2to0
    {
        type            processor;
        value           nonuniform List<scalar> 5(3.87601e-12 1.1143e-10 5.33169e-09 1.33198e-07 1.25274e-06);
    }
    procBoundary2to3
    {
        type            processor;
        value           nonuniform List<scalar> 5(6.59258e-06 6.69177e-06 6.9674e-06 7.47969e-06 8.01659e-06);
    }
}


// ************************************************************************* //
