/*--------------------------------*- C++ -*----------------------------------*\
  =========                 |
  \\      /  F ield         | OpenFOAM: The Open Source CFD Toolbox
   \\    /   O peration     | Website:  https://openfoam.org
    \\  /    A nd           | Version:  8
     \\/     M anipulation  |
\*---------------------------------------------------------------------------*/
FoamFile
{
    version     2.0;
    format      ascii;
    class       volScalarField;
    location    "0.2";
    object      O2;
}
// * * * * * * * * * * * * * * * * * * * * * * * * * * * * * * * * * * * * * //

dimensions      [0 0 0 0 0 0 0];

internalField   nonuniform List<scalar> 
25
(
0.000155438
0.0013393
0.0063806
0.0168705
0.024356
0.000154749
0.00133239
0.00636037
0.0168148
0.0241812
0.000155091
0.00133653
0.00636345
0.0166909
0.0237637
0.000154371
0.00132843
0.00633434
0.0165159
0.0231029
0.000154449
0.00133072
0.00636789
0.01648
0.0223909
)
;

boundaryField
{
    fuel
    {
        type            fixedValue;
        value           uniform 0;
    }
    air
    {
        type            fixedValue;
        value           nonuniform List<scalar> 0();
    }
    outlet
    {
        type            inletOutlet;
        inletValue      uniform 0;
        value           nonuniform List<scalar> 5(0.000154449 0.00133072 0.00636789 0.01648 0.0223909);
    }
    frontAndBack
    {
        type            empty;
    }
    procBoundary2to0
    {
        type            processor;
        value           nonuniform List<scalar> 5(0.000155438 0.00133929 0.00638056 0.0168703 0.0243557);
    }
    procBoundary2to3
    {
        type            processor;
        value           nonuniform List<scalar> 5(0.0284996 0.0282683 0.0275799 0.0263503 0.0247328);
    }
}


// ************************************************************************* //
