/*--------------------------------*- C++ -*----------------------------------*\
  =========                 |
  \\      /  F ield         | OpenFOAM: The Open Source CFD Toolbox
   \\    /   O peration     | Website:  https://openfoam.org
    \\  /    A nd           | Version:  8
     \\/     M anipulation  |
\*---------------------------------------------------------------------------*/
FoamFile
{
    version     2.0;
    format      ascii;
    class       volScalarField;
    location    "0.2";
    object      OH;
}
// * * * * * * * * * * * * * * * * * * * * * * * * * * * * * * * * * * * * * //

dimensions      [0 0 0 0 0 0 0];

internalField   nonuniform List<scalar> 
25
(
1.73813e-11
1.30758e-09
6.59088e-08
1.66124e-06
1.56307e-05
1.76153e-11
1.32714e-09
6.70004e-08
1.689e-06
1.58399e-05
1.82895e-11
1.377e-09
6.93573e-08
1.74213e-06
1.63204e-05
1.92571e-11
1.45427e-09
7.34769e-08
1.84649e-06
1.71244e-05
2.09886e-11
1.58987e-09
8.0433e-08
2.0161e-06
1.78553e-05
)
;

boundaryField
{
    fuel
    {
        type            fixedValue;
        value           uniform 0;
    }
    air
    {
        type            fixedValue;
        value           nonuniform List<scalar> 0();
    }
    outlet
    {
        type            inletOutlet;
        inletValue      uniform 0;
        value           nonuniform List<scalar> 5(2.09886e-11 1.58987e-09 8.0433e-08 2.0161e-06 1.78553e-05);
    }
    frontAndBack
    {
        type            empty;
    }
    procBoundary2to0
    {
        type            processor;
        value           nonuniform List<scalar> 5(1.73809e-11 1.30755e-09 6.5907e-08 1.66118e-06 1.56301e-05);
    }
    procBoundary2to3
    {
        type            processor;
        value           nonuniform List<scalar> 5(8.23626e-05 8.36276e-05 8.70021e-05 9.30351e-05 9.90454e-05);
    }
}


// ************************************************************************* //
