/*--------------------------------*- C++ -*----------------------------------*\
  =========                 |
  \\      /  F ield         | OpenFOAM: The Open Source CFD Toolbox
   \\    /   O peration     | Website:  https://openfoam.org
    \\  /    A nd           | Version:  8
     \\/     M anipulation  |
\*---------------------------------------------------------------------------*/
FoamFile
{
    version     2.0;
    format      ascii;
    class       surfaceScalarField;
    location    "0.2";
    object      phi;
}
// * * * * * * * * * * * * * * * * * * * * * * * * * * * * * * * * * * * * * //

dimensions      [1 0 -1 0 0 0 0];

internalField   nonuniform List<scalar> 
40
(
2.226e-06
4.08438e-07
1.3212e-06
9.06943e-07
3.23938e-07
1.00101e-06
-5.32857e-07
8.59181e-07
7.02674e-07
2.24719e-06
7.95686e-07
1.33245e-06
1.82383e-06
3.13542e-07
2.02366e-06
-5.37648e-07
1.71275e-06
1.39449e-06
2.22103e-06
1.20912e-06
1.29696e-06
2.7501e-06
2.91209e-07
3.0332e-06
-5.35087e-07
2.54141e-06
2.06199e-06
2.26582e-06
1.57778e-06
1.31586e-06
3.70233e-06
2.77868e-07
4.075e-06
-5.56927e-07
3.37856e-06
2.66343e-06
2.26042e-06
1.24084e-06
1.72113e-07
-6.59231e-07
)
;

boundaryField
{
    fuel
    {
        type            calculated;
        value           nonuniform List<scalar> 5(-2.63417e-06 -2.63417e-06 -2.63417e-06 -2.63417e-06 -2.63417e-06);
    }
    air
    {
        type            calculated;
        value           nonuniform List<scalar> 0();
    }
    outlet
    {
        type            calculated;
        value           nonuniform List<scalar> 5(1.95186e-06 4.72427e-06 5.14762e-06 4.21227e-06 3.10584e-06);
    }
    frontAndBack
    {
        type            empty;
        value           nonuniform List<scalar> 0();
    }
    procBoundary2to0
    {
        type            processor;
        value           nonuniform List<scalar> 5(-1.31878e-12 -6.07861e-12 -6.47667e-12 1.74268e-12 -3.92921e-12);
    }
    procBoundary2to3
    {
        type            processor;
        value           nonuniform List<scalar> 5(-1.23433e-06 -1.22826e-06 -1.20136e-06 -1.15707e-06 -1.10017e-06);
    }
}


// ************************************************************************* //
