/*--------------------------------*- C++ -*----------------------------------*\
  =========                 |
  \\      /  F ield         | OpenFOAM: The Open Source CFD Toolbox
   \\    /   O peration     | Website:  https://openfoam.org
    \\  /    A nd           | Version:  8
     \\/     M anipulation  |
\*---------------------------------------------------------------------------*/
FoamFile
{
    version     2.0;
    format      ascii;
    class       volScalarField;
    location    "0.2";
    object      T;
}
// * * * * * * * * * * * * * * * * * * * * * * * * * * * * * * * * * * * * * //

dimensions      [0 0 0 1 0 0 0];

internalField   nonuniform List<scalar> 
25
(
298.293
337.795
501.896
887.234
1326.54
298.281
337.682
501.998
888.828
1326.55
298.313
338.028
503.539
891.686
1326.05
298.315
338.033
504.587
896.331
1325.38
298.344
338.394
507.817
908.464
1325.93
)
;

boundaryField
{
    fuel
    {
        type            fixedValue;
        value           uniform 293;
    }
    air
    {
        type            fixedValue;
        value           nonuniform List<scalar> 0();
    }
    outlet
    {
        type            inletOutlet;
        inletValue      uniform 293;
        value           nonuniform List<scalar> 5(298.342 338.37 507.725 908.295 1325.74);
    }
    frontAndBack
    {
        type            empty;
    }
    procBoundary2to0
    {
        type            processor;
        value           nonuniform List<scalar> 5(298.293 337.795 501.897 887.237 1326.55);
    }
    procBoundary2to3
    {
        type            processor;
        value           nonuniform List<scalar> 5(1686.17 1685.46 1683.87 1681.15 1678.03);
    }
}


// ************************************************************************* //
