/*--------------------------------*- C++ -*----------------------------------*\
  =========                 |
  \\      /  F ield         | OpenFOAM: The Open Source CFD Toolbox
   \\    /   O peration     | Website:  https://openfoam.org
    \\  /    A nd           | Version:  8
     \\/     M anipulation  |
\*---------------------------------------------------------------------------*/
FoamFile
{
    version     2.0;
    format      ascii;
    class       volVectorField;
    location    "0.2";
    object      U;
}
// * * * * * * * * * * * * * * * * * * * * * * * * * * * * * * * * * * * * * //

dimensions      [0 1 -1 0 0 0 0];

internalField   nonuniform List<vector> 
25
(
(0.100119 0.00775043 0)
(0.0899988 0.0202117 0)
(0.0582617 0.0301991 0)
(0.00325571 0.0383043 -6.59868e-29)
(-0.114916 0.0407517 0)
(0.0995212 0.0235014 0)
(0.0921796 0.0574919 0)
(0.0577307 0.0870801 0)
(0.0020222 0.112775 0)
(-0.114607 0.12112 0)
(0.0991994 0.0382556 0)
(0.0909701 0.101289 0)
(0.0553749 0.155642 0)
(0.000505045 0.194038 0)
(-0.112318 0.202182 0)
(0.099799 0.0541358 0)
(0.0928647 0.131021 0)
(0.0553924 0.199211 0)
(-0.00246472 0.253589 0)
(-0.110679 0.270149 0)
(0.0991735 0.0734797 0)
(0.0910266 0.2004 0)
(0.0485447 0.303816 0)
(-0.0173829 0.373013 0)
(-0.111452 0.357168 0)
)
;

boundaryField
{
    fuel
    {
        type            fixedValue;
        value           uniform (0.1 0 0);
    }
    air
    {
        type            fixedValue;
        value           nonuniform List<vector> 0();
    }
    outlet
    {
        type            pressureInletOutletVelocity;
        value           nonuniform List<vector> 5((0.0991735 0.0734797 0) (0.0910266 0.2004 0) (0.0485447 0.303816 0) (-0.0173829 0.373013 0) (-0.111452 0.357168 0));
    }
    frontAndBack
    {
        type            empty;
    }
    procBoundary2to0
    {
        type            processor;
        value           nonuniform List<vector> 5((0.100119 -0.00775033 0) (0.0899988 -0.0202111 0) (0.058262 -0.0301982 0) (0.00325499 -0.0383044 0) (-0.114916 -0.0407506 0));
    }
    procBoundary2to3
    {
        type            processor;
        value           nonuniform List<vector> 5((-0.201278 0.0389777 0) (-0.199787 0.116504 0) (-0.195201 0.194488 0) (-0.185879 0.261691 0) (-0.168336 0.341247 0));
    }
}


// ************************************************************************* //
