/*--------------------------------*- C++ -*----------------------------------*\
  =========                 |
  \\      /  F ield         | OpenFOAM: The Open Source CFD Toolbox
   \\    /   O peration     | Website:  https://openfoam.org
    \\  /    A nd           | Version:  8
     \\/     M anipulation  |
\*---------------------------------------------------------------------------*/
FoamFile
{
    version     2.0;
    format      ascii;
    class       volScalarField;
    location    "0.05";
    object      C;
}
// * * * * * * * * * * * * * * * * * * * * * * * * * * * * * * * * * * * * * //

dimensions      [0 0 0 0 0 0 0];

internalField   nonuniform List<scalar> 
25
(
4.4916e-14
3.76732e-15
1.69027e-16
3.05329e-18
2.39771e-20
7.95324e-15
9.74485e-16
5.01013e-17
9.53012e-19
7.63339e-21
1.01954e-15
1.93721e-16
1.15789e-17
2.34161e-19
1.9156e-21
1.48834e-16
3.87596e-17
2.61496e-18
5.55439e-20
4.60245e-22
2.6508e-17
8.9212e-18
6.62065e-19
1.46548e-20
1.22733e-22
)
;

boundaryField
{
    fuel
    {
        type            fixedValue;
        value           nonuniform List<scalar> 0();
    }
    air
    {
        type            fixedValue;
        value           uniform 0;
    }
    outlet
    {
        type            inletOutlet;
        inletValue      uniform 0;
        value           nonuniform List<scalar> 5(2.6508e-17 8.9212e-18 6.62065e-19 1.46548e-20 1.22733e-22);
    }
    frontAndBack
    {
        type            empty;
    }
    procBoundary3to1
    {
        type            processor;
        value           nonuniform List<scalar> 5(4.49195e-14 3.7676e-15 1.69042e-16 3.05362e-18 2.39798e-20);
    }
    procBoundary3to2
    {
        type            processor;
        value           nonuniform List<scalar> 5(5.40296e-15 1.30343e-15 2.39735e-16 4.40696e-17 8.94104e-18);
    }
}


// ************************************************************************* //
