/*--------------------------------*- C++ -*----------------------------------*\
  =========                 |
  \\      /  F ield         | OpenFOAM: The Open Source CFD Toolbox
   \\    /   O peration     | Website:  https://openfoam.org
    \\  /    A nd           | Version:  8
     \\/     M anipulation  |
\*---------------------------------------------------------------------------*/
FoamFile
{
    version     2.0;
    format      ascii;
    class       volScalarField;
    location    "0.05";
    object      C2H4;
}
// * * * * * * * * * * * * * * * * * * * * * * * * * * * * * * * * * * * * * //

dimensions      [0 0 0 0 0 0 0];

internalField   nonuniform List<scalar> 
25
(
0.00307934
0.000284295
9.2087e-05
1.34087e-05
7.41295e-07
0.00260739
0.000240359
8.47838e-05
1.27021e-05
7.2163e-07
0.00174694
0.000166114
6.85946e-05
1.08572e-05
6.46623e-07
0.00110418
0.000108159
5.20106e-05
8.57835e-06
5.22944e-07
0.000763781
7.6391e-05
4.10593e-05
6.95151e-06
4.25745e-07
)
;

boundaryField
{
    fuel
    {
        type            fixedValue;
        value           nonuniform List<scalar> 0();
    }
    air
    {
        type            fixedValue;
        value           uniform 0;
    }
    outlet
    {
        type            inletOutlet;
        inletValue      uniform 0;
        value           nonuniform List<scalar> 5(0.000763781 7.6391e-05 4.10593e-05 6.95151e-06 4.25745e-07);
    }
    frontAndBack
    {
        type            empty;
    }
    procBoundary3to1
    {
        type            processor;
        value           nonuniform List<scalar> 5(0.00307942 0.000284303 9.2088e-05 1.3409e-05 7.41313e-07);
    }
    procBoundary3to2
    {
        type            processor;
        value           nonuniform List<scalar> 5(0.00204004 0.0018468 0.00144248 0.00107832 0.000799579);
    }
}


// ************************************************************************* //
