/*--------------------------------*- C++ -*----------------------------------*\
  =========                 |
  \\      /  F ield         | OpenFOAM: The Open Source CFD Toolbox
   \\    /   O peration     | Website:  https://openfoam.org
    \\  /    A nd           | Version:  8
     \\/     M anipulation  |
\*---------------------------------------------------------------------------*/
FoamFile
{
    version     2.0;
    format      ascii;
    class       volScalarField;
    location    "0.05";
    object      C2H5;
}
// * * * * * * * * * * * * * * * * * * * * * * * * * * * * * * * * * * * * * //

dimensions      [0 0 0 0 0 0 0];

internalField   nonuniform List<scalar> 
25
(
2.31869e-06
2.02227e-07
1.05338e-08
2.17547e-10
4.17236e-12
1.56385e-06
1.39495e-07
7.55544e-09
1.65591e-10
3.78665e-12
6.92524e-07
6.75821e-08
4.17368e-09
1.09283e-10
3.30819e-12
2.85121e-07
2.99501e-08
2.27445e-09
7.94806e-11
2.91713e-12
1.40719e-07
1.52277e-08
1.5315e-09
7.05939e-11
2.76582e-12
)
;

boundaryField
{
    fuel
    {
        type            fixedValue;
        value           nonuniform List<scalar> 0();
    }
    air
    {
        type            fixedValue;
        value           uniform 0;
    }
    outlet
    {
        type            inletOutlet;
        inletValue      uniform 0;
        value           nonuniform List<scalar> 5(1.40719e-07 1.52277e-08 1.5315e-09 7.05939e-11 2.76582e-12);
    }
    frontAndBack
    {
        type            empty;
    }
    procBoundary3to1
    {
        type            processor;
        value           nonuniform List<scalar> 5(2.31888e-06 2.02242e-07 1.05352e-08 2.17582e-10 4.17319e-12);
    }
    procBoundary3to2
    {
        type            processor;
        value           nonuniform List<scalar> 5(3.14689e-07 2.02432e-07 1.01371e-07 5.06157e-08 3.07065e-08);
    }
}


// ************************************************************************* //
