/*--------------------------------*- C++ -*----------------------------------*\
  =========                 |
  \\      /  F ield         | OpenFOAM: The Open Source CFD Toolbox
   \\    /   O peration     | Website:  https://openfoam.org
    \\  /    A nd           | Version:  8
     \\/     M anipulation  |
\*---------------------------------------------------------------------------*/
FoamFile
{
    version     2.0;
    format      ascii;
    class       volScalarField;
    location    "0.05";
    object      C3H7;
}
// * * * * * * * * * * * * * * * * * * * * * * * * * * * * * * * * * * * * * //

dimensions      [0 0 0 0 0 0 0];

internalField   nonuniform List<scalar> 
25
(
2.43116e-09
2.13974e-10
2.42309e-11
2.475e-11
1.33848e-12
1.6236e-09
1.47025e-10
2.05987e-11
2.46438e-11
1.38186e-12
7.2862e-10
7.26934e-11
1.58207e-11
2.36483e-11
1.33873e-12
3.17871e-10
3.42234e-11
1.23782e-11
2.17775e-11
1.18388e-12
1.6642e-10
1.87901e-11
1.08575e-11
2.07519e-11
1.06485e-12
)
;

boundaryField
{
    fuel
    {
        type            fixedValue;
        value           nonuniform List<scalar> 0();
    }
    air
    {
        type            fixedValue;
        value           uniform 0;
    }
    outlet
    {
        type            inletOutlet;
        inletValue      uniform 0;
        value           nonuniform List<scalar> 5(1.6642e-10 1.87901e-11 1.08575e-11 2.07519e-11 1.06485e-12);
    }
    frontAndBack
    {
        type            empty;
    }
    procBoundary3to1
    {
        type            processor;
        value           nonuniform List<scalar> 5(2.43136e-09 2.13988e-10 2.42351e-11 2.47537e-11 1.33871e-12);
    }
    procBoundary3to2
    {
        type            processor;
        value           nonuniform List<scalar> 5(5.78337e-10 4.95179e-10 3.45845e-10 2.46271e-10 1.8484e-10);
    }
}


// ************************************************************************* //
