/*--------------------------------*- C++ -*----------------------------------*\
  =========                 |
  \\      /  F ield         | OpenFOAM: The Open Source CFD Toolbox
   \\    /   O peration     | Website:  https://openfoam.org
    \\  /    A nd           | Version:  8
     \\/     M anipulation  |
\*---------------------------------------------------------------------------*/
FoamFile
{
    version     2.0;
    format      ascii;
    class       volScalarField;
    location    "0.05";
    object      CH2CHO;
}
// * * * * * * * * * * * * * * * * * * * * * * * * * * * * * * * * * * * * * //

dimensions      [0 0 0 0 0 0 0];

internalField   nonuniform List<scalar> 
25
(
7.87298e-08
7.17147e-09
2.41756e-09
6.02024e-11
6.98604e-13
5.19476e-08
4.88152e-09
1.84866e-09
4.95545e-11
6.0045e-13
2.09618e-08
2.25759e-09
1.19934e-09
3.8324e-11
4.85831e-13
7.6947e-09
9.55433e-10
7.84525e-10
3.15179e-11
4.04122e-13
3.37314e-09
4.73209e-10
6.26371e-10
2.96022e-11
3.74152e-13
)
;

boundaryField
{
    fuel
    {
        type            fixedValue;
        value           nonuniform List<scalar> 0();
    }
    air
    {
        type            fixedValue;
        value           uniform 0;
    }
    outlet
    {
        type            inletOutlet;
        inletValue      uniform 0;
        value           nonuniform List<scalar> 5(3.37314e-09 4.73209e-10 6.26371e-10 2.96022e-11 3.74152e-13);
    }
    frontAndBack
    {
        type            empty;
    }
    procBoundary3to1
    {
        type            processor;
        value           nonuniform List<scalar> 5(7.87364e-08 7.17211e-09 2.41853e-09 6.02206e-11 6.9877e-13);
    }
    procBoundary3to2
    {
        type            processor;
        value           nonuniform List<scalar> 5(1.15541e-08 7.05171e-09 3.33001e-09 1.51205e-09 7.69656e-10);
    }
}


// ************************************************************************* //
