/*--------------------------------*- C++ -*----------------------------------*\
  =========                 |
  \\      /  F ield         | OpenFOAM: The Open Source CFD Toolbox
   \\    /   O peration     | Website:  https://openfoam.org
    \\  /    A nd           | Version:  8
     \\/     M anipulation  |
\*---------------------------------------------------------------------------*/
FoamFile
{
    version     2.0;
    format      ascii;
    class       volScalarField;
    location    "0.05";
    object      CH2O;
}
// * * * * * * * * * * * * * * * * * * * * * * * * * * * * * * * * * * * * * //

dimensions      [0 0 0 0 0 0 0];

internalField   nonuniform List<scalar> 
25
(
0.000266564
3.92652e-05
9.84319e-05
1.22639e-05
7.06976e-07
0.000316904
4.2222e-05
9.68438e-05
1.20963e-05
7.07634e-07
0.000333076
4.20588e-05
9.35805e-05
1.16372e-05
6.97331e-07
0.000293982
3.77824e-05
8.93886e-05
1.08703e-05
6.58149e-07
0.000251362
3.3729e-05
8.77376e-05
1.03851e-05
6.26876e-07
)
;

boundaryField
{
    fuel
    {
        type            fixedValue;
        value           nonuniform List<scalar> 0();
    }
    air
    {
        type            fixedValue;
        value           uniform 0;
    }
    outlet
    {
        type            inletOutlet;
        inletValue      uniform 0;
        value           nonuniform List<scalar> 5(0.000251362 3.3729e-05 8.77376e-05 1.03851e-05 6.26876e-07);
    }
    frontAndBack
    {
        type            empty;
    }
    procBoundary3to1
    {
        type            processor;
        value           nonuniform List<scalar> 5(0.000266578 3.9268e-05 9.84388e-05 1.22643e-05 7.06964e-07);
    }
    procBoundary3to2
    {
        type            processor;
        value           nonuniform List<scalar> 5(0.000127408 0.000139565 0.000154216 0.000146587 0.000129769);
    }
}


// ************************************************************************* //
