/*--------------------------------*- C++ -*----------------------------------*\
  =========                 |
  \\      /  F ield         | OpenFOAM: The Open Source CFD Toolbox
   \\    /   O peration     | Website:  https://openfoam.org
    \\  /    A nd           | Version:  8
     \\/     M anipulation  |
\*---------------------------------------------------------------------------*/
FoamFile
{
    version     2.0;
    format      ascii;
    class       volScalarField;
    location    "0.05";
    object      CH2OH;
}
// * * * * * * * * * * * * * * * * * * * * * * * * * * * * * * * * * * * * * //

dimensions      [0 0 0 0 0 0 0];

internalField   nonuniform List<scalar> 
25
(
1.32467e-08
1.14372e-09
5.49982e-11
1.01441e-12
9.45302e-15
7.31508e-09
6.67472e-10
3.33706e-11
6.24878e-13
6.22111e-15
2.38051e-09
2.54136e-10
1.44506e-11
2.87206e-13
3.38834e-15
7.12181e-10
8.69102e-11
6.12115e-12
1.35708e-13
2.03283e-15
2.60455e-10
3.39626e-11
3.41759e-12
8.72672e-14
1.58365e-15
)
;

boundaryField
{
    fuel
    {
        type            fixedValue;
        value           nonuniform List<scalar> 0();
    }
    air
    {
        type            fixedValue;
        value           uniform 0;
    }
    outlet
    {
        type            inletOutlet;
        inletValue      uniform 0;
        value           nonuniform List<scalar> 5(2.60455e-10 3.39626e-11 3.41759e-12 8.72672e-14 1.58365e-15);
    }
    frontAndBack
    {
        type            empty;
    }
    procBoundary3to1
    {
        type            processor;
        value           nonuniform List<scalar> 5(1.3248e-08 1.14382e-09 5.50049e-11 1.01455e-12 9.45465e-15);
    }
    procBoundary3to2
    {
        type            processor;
        value           nonuniform List<scalar> 5(1.62693e-09 9.273e-10 3.36193e-10 1.07271e-10 3.73833e-11);
    }
}


// ************************************************************************* //
