/*--------------------------------*- C++ -*----------------------------------*\
  =========                 |
  \\      /  F ield         | OpenFOAM: The Open Source CFD Toolbox
   \\    /   O peration     | Website:  https://openfoam.org
    \\  /    A nd           | Version:  8
     \\/     M anipulation  |
\*---------------------------------------------------------------------------*/
FoamFile
{
    version     2.0;
    format      ascii;
    class       volScalarField;
    location    "0.05";
    object      CH3CHO;
}
// * * * * * * * * * * * * * * * * * * * * * * * * * * * * * * * * * * * * * //

dimensions      [0 0 0 0 0 0 0];

internalField   nonuniform List<scalar> 
25
(
1.35591e-06
1.63326e-07
2.94608e-07
2.6969e-08
1.41392e-09
1.00785e-06
1.30066e-07
2.71385e-07
2.5744e-08
1.3872e-09
5.59252e-07
8.74489e-08
2.3868e-07
2.28927e-08
1.28875e-09
3.37271e-07
6.17303e-08
2.10286e-07
1.9618e-08
1.14323e-09
2.41972e-07
4.99275e-08
2.00942e-07
1.77157e-08
1.04379e-09
)
;

boundaryField
{
    fuel
    {
        type            fixedValue;
        value           nonuniform List<scalar> 0();
    }
    air
    {
        type            fixedValue;
        value           uniform 0;
    }
    outlet
    {
        type            inletOutlet;
        inletValue      uniform 0;
        value           nonuniform List<scalar> 5(2.41972e-07 4.99275e-08 2.00942e-07 1.77157e-08 1.04379e-09);
    }
    frontAndBack
    {
        type            empty;
    }
    procBoundary3to1
    {
        type            processor;
        value           nonuniform List<scalar> 5(1.35599e-06 1.63339e-07 2.94646e-07 2.69704e-08 1.41392e-09);
    }
    procBoundary3to2
    {
        type            processor;
        value           nonuniform List<scalar> 5(1.69455e-07 1.25395e-07 7.06461e-08 4.04073e-08 2.59315e-08);
    }
}


// ************************************************************************* //
