/*--------------------------------*- C++ -*----------------------------------*\
  =========                 |
  \\      /  F ield         | OpenFOAM: The Open Source CFD Toolbox
   \\    /   O peration     | Website:  https://openfoam.org
    \\  /    A nd           | Version:  8
     \\/     M anipulation  |
\*---------------------------------------------------------------------------*/
FoamFile
{
    version     2.0;
    format      ascii;
    class       volScalarField;
    location    "0.05";
    object      H2;
}
// * * * * * * * * * * * * * * * * * * * * * * * * * * * * * * * * * * * * * //

dimensions      [0 0 0 0 0 0 0];

internalField   nonuniform List<scalar> 
25
(
0.00171468
0.000186395
7.09974e-05
1.37482e-05
1.11492e-06
0.00132077
0.000148835
6.11293e-05
1.22042e-05
9.8931e-07
0.000867001
0.000105889
4.78885e-05
9.95321e-06
8.06643e-07
0.000581615
7.76689e-05
3.68237e-05
7.7743e-06
6.16367e-07
0.000435195
6.25763e-05
3.00835e-05
6.34478e-06
4.87105e-07
)
;

boundaryField
{
    fuel
    {
        type            fixedValue;
        value           nonuniform List<scalar> 0();
    }
    air
    {
        type            fixedValue;
        value           uniform 0;
    }
    outlet
    {
        type            inletOutlet;
        inletValue      uniform 0;
        value           nonuniform List<scalar> 5(0.000435195 6.25763e-05 3.00835e-05 6.34478e-06 4.87105e-07);
    }
    frontAndBack
    {
        type            empty;
    }
    procBoundary3to1
    {
        type            processor;
        value           nonuniform List<scalar> 5(0.00171468 0.000186402 7.09977e-05 1.37482e-05 1.11492e-06);
    }
    procBoundary3to2
    {
        type            processor;
        value           nonuniform List<scalar> 5(0.00147108 0.00125794 0.00098018 0.000758237 0.000592034);
    }
}


// ************************************************************************* //
