/*--------------------------------*- C++ -*----------------------------------*\
  =========                 |
  \\      /  F ield         | OpenFOAM: The Open Source CFD Toolbox
   \\    /   O peration     | Website:  https://openfoam.org
    \\  /    A nd           | Version:  8
     \\/     M anipulation  |
\*---------------------------------------------------------------------------*/
FoamFile
{
    version     2.0;
    format      ascii;
    class       volScalarField;
    location    "0.05";
    object      H2CN;
}
// * * * * * * * * * * * * * * * * * * * * * * * * * * * * * * * * * * * * * //

dimensions      [0 0 0 0 0 0 0];

internalField   nonuniform List<scalar> 
25
(
5.20782e-12
5.26646e-13
4.82665e-13
3.74711e-12
2.07455e-13
3.83823e-12
3.9895e-13
3.99601e-13
3.09832e-12
1.68397e-13
2.10777e-12
2.39915e-13
2.98418e-13
2.29703e-12
1.20003e-13
1.08776e-12
1.37015e-13
2.18791e-13
1.64762e-12
8.0889e-14
6.39766e-13
8.77758e-14
1.73595e-13
1.28133e-12
5.85173e-14
)
;

boundaryField
{
    fuel
    {
        type            fixedValue;
        value           nonuniform List<scalar> 0();
    }
    air
    {
        type            fixedValue;
        value           uniform 0;
    }
    outlet
    {
        type            inletOutlet;
        inletValue      uniform 0;
        value           nonuniform List<scalar> 5(6.39766e-13 8.77758e-14 1.73595e-13 1.28133e-12 5.85173e-14);
    }
    frontAndBack
    {
        type            empty;
    }
    procBoundary3to1
    {
        type            processor;
        value           nonuniform List<scalar> 5(5.2095e-12 5.26851e-13 4.83153e-13 3.75107e-12 2.07696e-13);
    }
    procBoundary3to2
    {
        type            processor;
        value           nonuniform List<scalar> 5(8.60969e-13 7.20891e-13 4.56006e-13 2.79019e-13 1.82558e-13);
    }
}


// ************************************************************************* //
