/*--------------------------------*- C++ -*----------------------------------*\
  =========                 |
  \\      /  F ield         | OpenFOAM: The Open Source CFD Toolbox
   \\    /   O peration     | Website:  https://openfoam.org
    \\  /    A nd           | Version:  8
     \\/     M anipulation  |
\*---------------------------------------------------------------------------*/
FoamFile
{
    version     2.0;
    format      ascii;
    class       volScalarField;
    location    "0.05";
    object      H2O;
}
// * * * * * * * * * * * * * * * * * * * * * * * * * * * * * * * * * * * * * //

dimensions      [0 0 0 0 0 0 0];

internalField   nonuniform List<scalar> 
25
(
0.0468881
0.0519876
0.0141757
0.00219771
0.000155693
0.0431487
0.0507118
0.013609
0.00206632
0.0001425
0.0378961
0.0487136
0.0127805
0.00187562
0.000124054
0.0334804
0.0467698
0.0119718
0.00167631
0.000104424
0.0303892
0.0455988
0.0115141
0.00155548
9.16442e-05
)
;

boundaryField
{
    fuel
    {
        type            fixedValue;
        value           nonuniform List<scalar> 0();
    }
    air
    {
        type            fixedValue;
        value           uniform 0;
    }
    outlet
    {
        type            inletOutlet;
        inletValue      uniform 0;
        value           nonuniform List<scalar> 5(0.0303892 0.0455988 0.0115141 0.00155548 9.16442e-05);
    }
    frontAndBack
    {
        type            empty;
    }
    procBoundary3to1
    {
        type            processor;
        value           nonuniform List<scalar> 5(0.0468884 0.0519882 0.0141761 0.0021978 0.0001557);
    }
    procBoundary3to2
    {
        type            processor;
        value           nonuniform List<scalar> 5(0.0277403 0.0256266 0.0224225 0.0193832 0.0166925);
    }
}


// ************************************************************************* //
