/*--------------------------------*- C++ -*----------------------------------*\
  =========                 |
  \\      /  F ield         | OpenFOAM: The Open Source CFD Toolbox
   \\    /   O peration     | Website:  https://openfoam.org
    \\  /    A nd           | Version:  8
     \\/     M anipulation  |
\*---------------------------------------------------------------------------*/
FoamFile
{
    version     2.0;
    format      ascii;
    class       volScalarField;
    location    "0.05";
    object      H2O2;
}
// * * * * * * * * * * * * * * * * * * * * * * * * * * * * * * * * * * * * * //

dimensions      [0 0 0 0 0 0 0];

internalField   nonuniform List<scalar> 
25
(
1.57863e-06
8.26745e-06
5.22885e-05
7.06485e-06
3.68215e-07
1.4647e-06
7.59647e-06
4.84836e-05
6.67131e-06
3.51923e-07
1.25253e-06
6.57299e-06
4.27434e-05
5.97725e-06
3.21081e-07
1.00885e-06
5.54101e-06
3.71352e-05
5.16578e-06
2.78448e-07
8.07863e-07
4.85008e-06
3.36755e-05
4.62613e-06
2.4782e-07
)
;

boundaryField
{
    fuel
    {
        type            fixedValue;
        value           nonuniform List<scalar> 0();
    }
    air
    {
        type            fixedValue;
        value           uniform 0;
    }
    outlet
    {
        type            inletOutlet;
        inletValue      uniform 0;
        value           nonuniform List<scalar> 5(8.07863e-07 4.85008e-06 3.36755e-05 4.62613e-06 2.4782e-07);
    }
    frontAndBack
    {
        type            empty;
    }
    procBoundary3to1
    {
        type            processor;
        value           nonuniform List<scalar> 5(1.5788e-06 8.26799e-06 5.22889e-05 7.06457e-06 3.68187e-07);
    }
    procBoundary3to2
    {
        type            processor;
        value           nonuniform List<scalar> 5(3.30588e-07 3.4664e-07 3.4898e-07 3.35652e-07 3.19086e-07);
    }
}


// ************************************************************************* //
