/*--------------------------------*- C++ -*----------------------------------*\
  =========                 |
  \\      /  F ield         | OpenFOAM: The Open Source CFD Toolbox
   \\    /   O peration     | Website:  https://openfoam.org
    \\  /    A nd           | Version:  8
     \\/     M anipulation  |
\*---------------------------------------------------------------------------*/
FoamFile
{
    version     2.0;
    format      ascii;
    class       volScalarField;
    location    "0.05";
    object      HCCO;
}
// * * * * * * * * * * * * * * * * * * * * * * * * * * * * * * * * * * * * * //

dimensions      [0 0 0 0 0 0 0];

internalField   nonuniform List<scalar> 
25
(
9.62583e-07
8.23863e-08
3.80574e-09
6.99554e-11
5.72293e-13
4.24474e-07
4.02168e-08
1.94761e-09
3.66588e-11
3.08209e-13
1.12901e-07
1.30931e-08
7.03494e-10
1.42331e-11
1.2828e-13
3.01091e-08
4.01258e-09
2.41546e-10
5.5944e-12
5.59042e-14
1.03247e-08
1.4454e-09
1.00124e-10
2.90584e-12
3.2384e-14
)
;

boundaryField
{
    fuel
    {
        type            fixedValue;
        value           nonuniform List<scalar> 0();
    }
    air
    {
        type            fixedValue;
        value           uniform 0;
    }
    outlet
    {
        type            inletOutlet;
        inletValue      uniform 0;
        value           nonuniform List<scalar> 5(1.03247e-08 1.4454e-09 1.00124e-10 2.90584e-12 3.2384e-14);
    }
    frontAndBack
    {
        type            empty;
    }
    procBoundary3to1
    {
        type            processor;
        value           nonuniform List<scalar> 5(9.62626e-07 8.23899e-08 3.806e-09 6.99614e-11 5.72346e-13);
    }
    procBoundary3to2
    {
        type            processor;
        value           nonuniform List<scalar> 5(1.19175e-07 5.58353e-08 1.7509e-08 5.26315e-09 1.89166e-09);
    }
}


// ************************************************************************* //
