/*--------------------------------*- C++ -*----------------------------------*\
  =========                 |
  \\      /  F ield         | OpenFOAM: The Open Source CFD Toolbox
   \\    /   O peration     | Website:  https://openfoam.org
    \\  /    A nd           | Version:  8
     \\/     M anipulation  |
\*---------------------------------------------------------------------------*/
FoamFile
{
    version     2.0;
    format      ascii;
    class       volScalarField;
    location    "0.05";
    object      HO2;
}
// * * * * * * * * * * * * * * * * * * * * * * * * * * * * * * * * * * * * * //

dimensions      [0 0 0 0 0 0 0];

internalField   nonuniform List<scalar> 
25
(
5.28468e-06
5.78979e-06
2.49134e-05
3.937e-06
2.2637e-07
5.55314e-06
5.63082e-06
2.41566e-05
3.73323e-06
2.17943e-07
4.90926e-06
5.44952e-06
2.32547e-05
3.45462e-06
2.04801e-07
3.84169e-06
5.32125e-06
2.24906e-05
3.16953e-06
1.87494e-07
3.02897e-06
5.04098e-06
2.21521e-05
3.02951e-06
1.76291e-07
)
;

boundaryField
{
    fuel
    {
        type            fixedValue;
        value           nonuniform List<scalar> 0();
    }
    air
    {
        type            fixedValue;
        value           uniform 0;
    }
    outlet
    {
        type            inletOutlet;
        inletValue      uniform 0;
        value           nonuniform List<scalar> 5(3.02897e-06 5.04098e-06 2.21521e-05 3.02951e-06 1.76291e-07);
    }
    frontAndBack
    {
        type            empty;
    }
    procBoundary3to1
    {
        type            processor;
        value           nonuniform List<scalar> 5(5.28501e-06 5.78997e-06 2.49135e-05 3.93713e-06 2.26362e-07);
    }
    procBoundary3to2
    {
        type            processor;
        value           nonuniform List<scalar> 5(1.1391e-06 1.15855e-06 1.05551e-06 8.54662e-07 6.6385e-07);
    }
}


// ************************************************************************* //
