/*--------------------------------*- C++ -*----------------------------------*\
  =========                 |
  \\      /  F ield         | OpenFOAM: The Open Source CFD Toolbox
   \\    /   O peration     | Website:  https://openfoam.org
    \\  /    A nd           | Version:  8
     \\/     M anipulation  |
\*---------------------------------------------------------------------------*/
FoamFile
{
    version     2.0;
    format      ascii;
    class       volScalarField;
    location    "0.05";
    object      HOCN;
}
// * * * * * * * * * * * * * * * * * * * * * * * * * * * * * * * * * * * * * //

dimensions      [0 0 0 0 0 0 0];

internalField   nonuniform List<scalar> 
25
(
2.50964e-09
3.44842e-10
6.86331e-10
4.42196e-10
8.16686e-11
2.27134e-09
3.04105e-10
6.53782e-10
4.13649e-10
7.40559e-11
1.90992e-09
2.77163e-10
6.02401e-10
3.68475e-10
6.32175e-11
1.56382e-09
2.63184e-10
5.3937e-10
3.11255e-10
4.92563e-11
1.3335e-09
2.05989e-10
4.86332e-10
2.6547e-10
3.79948e-11
)
;

boundaryField
{
    fuel
    {
        type            fixedValue;
        value           nonuniform List<scalar> 0();
    }
    air
    {
        type            fixedValue;
        value           uniform 0;
    }
    outlet
    {
        type            inletOutlet;
        inletValue      uniform 0;
        value           nonuniform List<scalar> 5(1.3335e-09 2.05989e-10 4.86332e-10 2.6547e-10 3.79948e-11);
    }
    frontAndBack
    {
        type            empty;
    }
    procBoundary3to1
    {
        type            processor;
        value           nonuniform List<scalar> 5(2.51069e-09 3.45026e-10 6.86931e-10 4.42692e-10 8.17671e-11);
    }
    procBoundary3to2
    {
        type            processor;
        value           nonuniform List<scalar> 5(2.04645e-09 1.93783e-09 1.75325e-09 1.55018e-09 1.36227e-09);
    }
}


// ************************************************************************* //
