/*--------------------------------*- C++ -*----------------------------------*\
  =========                 |
  \\      /  F ield         | OpenFOAM: The Open Source CFD Toolbox
   \\    /   O peration     | Website:  https://openfoam.org
    \\  /    A nd           | Version:  8
     \\/     M anipulation  |
\*---------------------------------------------------------------------------*/
FoamFile
{
    version     2.0;
    format      ascii;
    class       volScalarField;
    location    "0.05";
    object      NCO;
}
// * * * * * * * * * * * * * * * * * * * * * * * * * * * * * * * * * * * * * //

dimensions      [0 0 0 0 0 0 0];

internalField   nonuniform List<scalar> 
25
(
7.2406e-10
1.12994e-10
1.61406e-10
1.24317e-11
1.24533e-12
4.88916e-10
7.60026e-11
1.54258e-10
1.15314e-11
1.38518e-12
2.47107e-10
7.95891e-11
1.53667e-10
1.09109e-11
1.67642e-12
1.30456e-10
1.33492e-10
1.59106e-10
1.0836e-11
2.06309e-12
7.38604e-11
7.22109e-11
1.64691e-10
1.14208e-11
2.37668e-12
)
;

boundaryField
{
    fuel
    {
        type            fixedValue;
        value           nonuniform List<scalar> 0();
    }
    air
    {
        type            fixedValue;
        value           uniform 0;
    }
    outlet
    {
        type            inletOutlet;
        inletValue      uniform 0;
        value           nonuniform List<scalar> 5(7.38604e-11 7.22109e-11 1.64691e-10 1.14208e-11 2.37668e-12);
    }
    frontAndBack
    {
        type            empty;
    }
    procBoundary3to1
    {
        type            processor;
        value           nonuniform List<scalar> 5(7.24332e-10 1.1303e-10 1.61474e-10 1.24357e-11 1.24512e-12);
    }
    procBoundary3to2
    {
        type            processor;
        value           nonuniform List<scalar> 5(9.29534e-11 6.97413e-11 3.84363e-11 2.14557e-11 1.32111e-11);
    }
}


// ************************************************************************* //
