/*--------------------------------*- C++ -*----------------------------------*\
  =========                 |
  \\      /  F ield         | OpenFOAM: The Open Source CFD Toolbox
   \\    /   O peration     | Website:  https://openfoam.org
    \\  /    A nd           | Version:  8
     \\/     M anipulation  |
\*---------------------------------------------------------------------------*/
FoamFile
{
    version     2.0;
    format      ascii;
    class       volScalarField;
    location    "0.05";
    object      NH3;
}
// * * * * * * * * * * * * * * * * * * * * * * * * * * * * * * * * * * * * * //

dimensions      [0 0 0 0 0 0 0];

internalField   nonuniform List<scalar> 
25
(
2.37983e-06
2.28788e-07
1.37356e-07
3.36467e-08
3.31134e-09
1.84475e-06
1.81593e-07
1.19822e-07
3.01984e-08
2.92796e-09
1.34173e-06
1.33865e-07
9.75198e-08
2.52677e-08
2.3918e-09
1.01862e-06
1.01127e-07
7.77484e-08
2.0199e-08
1.81999e-09
8.33568e-07
8.25001e-08
6.46675e-08
1.66684e-08
1.42036e-09
)
;

boundaryField
{
    fuel
    {
        type            fixedValue;
        value           nonuniform List<scalar> 0();
    }
    air
    {
        type            fixedValue;
        value           uniform 0;
    }
    outlet
    {
        type            inletOutlet;
        inletValue      uniform 0;
        value           nonuniform List<scalar> 5(8.33568e-07 8.25001e-08 6.46675e-08 1.66684e-08 1.42036e-09);
    }
    frontAndBack
    {
        type            empty;
    }
    procBoundary3to1
    {
        type            processor;
        value           nonuniform List<scalar> 5(2.38041e-06 2.28846e-07 1.37396e-07 3.36599e-08 3.31311e-09);
    }
    procBoundary3to2
    {
        type            processor;
        value           nonuniform List<scalar> 5(2.74043e-06 2.37446e-06 1.92773e-06 1.55646e-06 1.25282e-06);
    }
}


// ************************************************************************* //
