/*--------------------------------*- C++ -*----------------------------------*\
  =========                 |
  \\      /  F ield         | OpenFOAM: The Open Source CFD Toolbox
   \\    /   O peration     | Website:  https://openfoam.org
    \\  /    A nd           | Version:  8
     \\/     M anipulation  |
\*---------------------------------------------------------------------------*/
FoamFile
{
    version     2.0;
    format      ascii;
    class       volScalarField;
    location    "0.05";
    object      NNH;
}
// * * * * * * * * * * * * * * * * * * * * * * * * * * * * * * * * * * * * * //

dimensions      [0 0 0 0 0 0 0];

internalField   nonuniform List<scalar> 
25
(
4.46938e-11
1.81054e-10
8.31271e-12
1.51414e-13
1.19386e-15
3.49048e-11
1.63539e-10
7.43967e-12
1.34223e-13
1.05236e-15
2.55956e-11
1.41067e-10
6.3396e-12
1.13176e-13
8.83883e-16
2.01024e-11
1.24877e-10
5.55148e-12
9.79549e-14
7.59662e-16
1.81848e-11
1.3319e-10
5.78023e-12
1.0093e-13
7.78744e-16
)
;

boundaryField
{
    fuel
    {
        type            fixedValue;
        value           nonuniform List<scalar> 0();
    }
    air
    {
        type            fixedValue;
        value           uniform 0;
    }
    outlet
    {
        type            inletOutlet;
        inletValue      uniform 0;
        value           nonuniform List<scalar> 5(1.81848e-11 1.3319e-10 5.78023e-12 1.0093e-13 7.78744e-16);
    }
    frontAndBack
    {
        type            empty;
    }
    procBoundary3to1
    {
        type            processor;
        value           nonuniform List<scalar> 5(4.46994e-11 1.81088e-10 8.31429e-12 1.51446e-13 1.19412e-15);
    }
    procBoundary3to2
    {
        type            processor;
        value           nonuniform List<scalar> 5(5.60653e-12 4.37037e-12 3.10577e-12 2.26747e-12 1.81099e-12);
    }
}


// ************************************************************************* //
