/*--------------------------------*- C++ -*----------------------------------*\
  =========                 |
  \\      /  F ield         | OpenFOAM: The Open Source CFD Toolbox
   \\    /   O peration     | Website:  https://openfoam.org
    \\  /    A nd           | Version:  8
     \\/     M anipulation  |
\*---------------------------------------------------------------------------*/
FoamFile
{
    version     2.0;
    format      ascii;
    class       volScalarField;
    location    "0.05";
    object      NO;
}
// * * * * * * * * * * * * * * * * * * * * * * * * * * * * * * * * * * * * * //

dimensions      [0 0 0 0 0 0 0];

internalField   nonuniform List<scalar> 
25
(
1.93417e-05
3.18741e-05
3.65284e-06
3.56383e-07
9.54602e-08
1.96036e-05
2.94493e-05
3.26652e-06
3.23177e-07
8.26583e-08
1.88257e-05
2.58964e-05
2.79197e-06
2.83645e-07
6.5663e-08
1.70627e-05
2.25826e-05
2.40092e-06
2.50087e-07
4.96455e-08
1.54904e-05
2.05571e-05
2.22307e-06
2.31823e-07
3.89721e-08
)
;

boundaryField
{
    fuel
    {
        type            fixedValue;
        value           nonuniform List<scalar> 0();
    }
    air
    {
        type            fixedValue;
        value           uniform 0;
    }
    outlet
    {
        type            inletOutlet;
        inletValue      uniform 0;
        value           nonuniform List<scalar> 5(1.54904e-05 2.05571e-05 2.22307e-06 2.31823e-07 3.89721e-08);
    }
    frontAndBack
    {
        type            empty;
    }
    procBoundary3to1
    {
        type            processor;
        value           nonuniform List<scalar> 5(1.93464e-05 3.18816e-05 3.65418e-06 3.56546e-07 9.55117e-08);
    }
    procBoundary3to2
    {
        type            processor;
        value           nonuniform List<scalar> 5(1.30812e-05 1.29787e-05 1.2351e-05 1.13517e-05 1.02537e-05);
    }
}


// ************************************************************************* //
