/*--------------------------------*- C++ -*----------------------------------*\
  =========                 |
  \\      /  F ield         | OpenFOAM: The Open Source CFD Toolbox
   \\    /   O peration     | Website:  https://openfoam.org
    \\  /    A nd           | Version:  8
     \\/     M anipulation  |
\*---------------------------------------------------------------------------*/
FoamFile
{
    version     2.0;
    format      ascii;
    class       volVectorField;
    location    "0.05";
    object      U;
}
// * * * * * * * * * * * * * * * * * * * * * * * * * * * * * * * * * * * * * //

dimensions      [0 1 -1 0 0 0 0];

internalField   nonuniform List<vector> 
25
(
(-0.148792 0.0358283 0)
(-0.175949 0.0339056 3.04281e-29)
(-0.133307 0.0248318 0)
(-0.109251 0.0136799 -2.22696e-29)
(-0.100881 0.00516019 0)
(-0.144456 0.105959 0)
(-0.172686 0.101068 0)
(-0.132014 0.0740629 0)
(-0.109671 0.041783 0)
(-0.0997391 0.0140225 0)
(-0.13556 0.175076 0)
(-0.164494 0.168544 0)
(-0.128495 0.125126 0)
(-0.10873 0.0706936 0)
(-0.0995796 0.0233118 0)
(-0.121788 0.235898 0)
(-0.148348 0.229579 0)
(-0.122801 0.168497 0)
(-0.108641 0.0954558 0)
(-0.100287 0.0327802 0)
(-0.099733 0.322356 0)
(-0.122956 0.324639 0)
(-0.1103 0.258621 0)
(-0.106069 0.149714 0)
(-0.100511 0.0505529 0)
)
;

boundaryField
{
    fuel
    {
        type            fixedValue;
        value           nonuniform List<vector> 0();
    }
    air
    {
        type            fixedValue;
        value           uniform (-0.1 0 0);
    }
    outlet
    {
        type            pressureInletOutletVelocity;
        value           nonuniform List<vector> 5((-0.099733 0.322356 0) (-0.122956 0.324639 0) (-0.1103 0.258621 0) (-0.106069 0.149714 0) (-0.100511 0.0505529 0));
    }
    frontAndBack
    {
        type            empty;
    }
    procBoundary3to1
    {
        type            processor;
        value           nonuniform List<vector> 5((-0.148654 -0.0357127 0) (-0.176004 -0.0339064 3.04288e-29) (-0.133334 -0.0247806 0) (-0.109265 -0.0136496 -2.22698e-29) (-0.100877 -0.00518809 0));
    }
    procBoundary3to2
    {
        type            processor;
        value           nonuniform List<vector> 5((-0.0640507 0.0345388 0) (-0.060942 0.101986 0) (-0.0548146 0.167995 0) (-0.0469643 0.224715 0) (-0.0364277 0.306555 0));
    }
}


// ************************************************************************* //
