/*--------------------------------*- C++ -*----------------------------------*\
  =========                 |
  \\      /  F ield         | OpenFOAM: The Open Source CFD Toolbox
   \\    /   O peration     | Website:  https://openfoam.org
    \\  /    A nd           | Version:  8
     \\/     M anipulation  |
\*---------------------------------------------------------------------------*/
FoamFile
{
    version     2.0;
    format      ascii;
    class       volScalarField;
    location    "0.05";
    object      C2H3;
}
// * * * * * * * * * * * * * * * * * * * * * * * * * * * * * * * * * * * * * //

dimensions      [0 0 0 0 0 0 0];

internalField   nonuniform List<scalar> 
25
(
7.34925e-07
6.30995e-08
2.87474e-09
5.21393e-11
4.10354e-13
3.55555e-07
3.31179e-08
1.56106e-09
2.85837e-11
2.25541e-13
1.01661e-07
1.14062e-08
5.85195e-10
1.1071e-11
8.84527e-14
2.80456e-08
3.61983e-09
2.01819e-10
3.93586e-12
3.17044e-14
9.7268e-09
1.33098e-09
7.98e-11
1.59665e-12
1.29611e-14
)
;

boundaryField
{
    fuel
    {
        type            fixedValue;
        value           nonuniform List<scalar> 0();
    }
    air
    {
        type            fixedValue;
        value           uniform 0;
    }
    outlet
    {
        type            inletOutlet;
        inletValue      uniform 0;
        value           nonuniform List<scalar> 5(9.7268e-09 1.33098e-09 7.98e-11 1.59665e-12 1.29611e-14);
    }
    frontAndBack
    {
        type            empty;
    }
    procBoundary3to1
    {
        type            processor;
        value           nonuniform List<scalar> 5(7.34972e-07 6.31033e-08 2.87497e-09 5.21444e-11 4.10396e-13);
    }
    procBoundary3to2
    {
        type            processor;
        value           nonuniform List<scalar> 5(9.29705e-08 4.72999e-08 1.58611e-08 4.95089e-09 1.75335e-09);
    }
}


// ************************************************************************* //
