/*--------------------------------*- C++ -*----------------------------------*\
  =========                 |
  \\      /  F ield         | OpenFOAM: The Open Source CFD Toolbox
   \\    /   O peration     | Website:  https://openfoam.org
    \\  /    A nd           | Version:  8
     \\/     M anipulation  |
\*---------------------------------------------------------------------------*/
FoamFile
{
    version     2.0;
    format      ascii;
    class       volScalarField;
    location    "0.05";
    object      C3H8;
}
// * * * * * * * * * * * * * * * * * * * * * * * * * * * * * * * * * * * * * //

dimensions      [0 0 0 0 0 0 0];

internalField   nonuniform List<scalar> 
25
(
3.25114e-06
3.06296e-07
1.20441e-07
1.37112e-08
6.30181e-10
3.11547e-06
2.87597e-07
1.20502e-07
1.42582e-08
6.80721e-10
2.27174e-06
2.16346e-07
1.07602e-07
1.33928e-08
6.82625e-10
1.61964e-06
1.57193e-07
8.97547e-08
1.13862e-08
6.02347e-10
1.30617e-06
1.26504e-07
7.8429e-08
9.84218e-09
5.27787e-10
)
;

boundaryField
{
    fuel
    {
        type            fixedValue;
        value           nonuniform List<scalar> 0();
    }
    air
    {
        type            fixedValue;
        value           uniform 0;
    }
    outlet
    {
        type            inletOutlet;
        inletValue      uniform 0;
        value           nonuniform List<scalar> 5(1.30617e-06 1.26504e-07 7.8429e-08 9.84218e-09 5.27787e-10);
    }
    frontAndBack
    {
        type            empty;
    }
    procBoundary3to1
    {
        type            processor;
        value           nonuniform List<scalar> 5(3.25131e-06 3.06311e-07 1.20449e-07 1.37117e-08 6.30187e-10);
    }
    procBoundary3to2
    {
        type            processor;
        value           nonuniform List<scalar> 5(2.71476e-06 2.83225e-06 2.29706e-06 1.78896e-06 1.35574e-06);
    }
}


// ************************************************************************* //
