/*--------------------------------*- C++ -*----------------------------------*\
  =========                 |
  \\      /  F ield         | OpenFOAM: The Open Source CFD Toolbox
   \\    /   O peration     | Website:  https://openfoam.org
    \\  /    A nd           | Version:  8
     \\/     M anipulation  |
\*---------------------------------------------------------------------------*/
FoamFile
{
    version     2.0;
    format      ascii;
    class       volScalarField;
    location    "0.05";
    object      CH;
}
// * * * * * * * * * * * * * * * * * * * * * * * * * * * * * * * * * * * * * //

dimensions      [0 0 0 0 0 0 0];

internalField   nonuniform List<scalar> 
25
(
2.56839e-11
2.17147e-12
9.77279e-14
1.76741e-15
1.38871e-17
7.24908e-12
7.60662e-13
3.72273e-14
6.94542e-16
5.52006e-18
1.184e-12
1.78731e-13
9.99788e-15
1.96946e-16
1.59575e-18
1.69953e-13
3.80036e-14
2.43336e-15
5.05549e-17
4.1564e-19
3.537e-14
9.38947e-15
6.57705e-16
1.42356e-17
1.18353e-19
)
;

boundaryField
{
    fuel
    {
        type            fixedValue;
        value           nonuniform List<scalar> 0();
    }
    air
    {
        type            fixedValue;
        value           uniform 0;
    }
    outlet
    {
        type            inletOutlet;
        inletValue      uniform 0;
        value           nonuniform List<scalar> 5(3.537e-14 9.38947e-15 6.57705e-16 1.42356e-17 1.18353e-19);
    }
    frontAndBack
    {
        type            empty;
    }
    procBoundary3to1
    {
        type            processor;
        value           nonuniform List<scalar> 5(2.56861e-11 2.17165e-12 9.77374e-14 1.76761e-15 1.38888e-17);
    }
    procBoundary3to2
    {
        type            processor;
        value           nonuniform List<scalar> 5(3.10754e-12 1.03743e-12 2.27663e-13 4.44147e-14 9.69895e-15);
    }
}


// ************************************************************************* //
