/*--------------------------------*- C++ -*----------------------------------*\
  =========                 |
  \\      /  F ield         | OpenFOAM: The Open Source CFD Toolbox
   \\    /   O peration     | Website:  https://openfoam.org
    \\  /    A nd           | Version:  8
     \\/     M anipulation  |
\*---------------------------------------------------------------------------*/
FoamFile
{
    version     2.0;
    format      ascii;
    class       volScalarField;
    location    "0.05";
    object      CH3;
}
// * * * * * * * * * * * * * * * * * * * * * * * * * * * * * * * * * * * * * //

dimensions      [0 0 0 0 0 0 0];

internalField   nonuniform List<scalar> 
25
(
0.000196624
1.72807e-05
1.0089e-06
4.0734e-08
1.76481e-09
0.000148689
1.32055e-05
7.98513e-07
3.57571e-08
1.60198e-09
8.83227e-05
8.13542e-06
5.49856e-07
3.15368e-08
1.39901e-09
5.15408e-05
4.85643e-06
3.90191e-07
3.00623e-08
1.2497e-09
3.41593e-05
3.25445e-06
3.36525e-07
3.18009e-08
1.207e-09
)
;

boundaryField
{
    fuel
    {
        type            fixedValue;
        value           nonuniform List<scalar> 0();
    }
    air
    {
        type            fixedValue;
        value           uniform 0;
    }
    outlet
    {
        type            inletOutlet;
        inletValue      uniform 0;
        value           nonuniform List<scalar> 5(3.41593e-05 3.25445e-06 3.36525e-07 3.18009e-08 1.207e-09);
    }
    frontAndBack
    {
        type            empty;
    }
    procBoundary3to1
    {
        type            processor;
        value           nonuniform List<scalar> 5(0.000196635 1.72817e-05 1.00905e-06 4.07405e-08 1.76502e-09);
    }
    procBoundary3to2
    {
        type            processor;
        value           nonuniform List<scalar> 5(3.19254e-05 2.82874e-05 1.91337e-05 1.28946e-05 9.46742e-06);
    }
}


// ************************************************************************* //
