/*--------------------------------*- C++ -*----------------------------------*\
  =========                 |
  \\      /  F ield         | OpenFOAM: The Open Source CFD Toolbox
   \\    /   O peration     | Website:  https://openfoam.org
    \\  /    A nd           | Version:  8
     \\/     M anipulation  |
\*---------------------------------------------------------------------------*/
FoamFile
{
    version     2.0;
    format      ascii;
    class       volScalarField;
    location    "0.05";
    object      CN;
}
// * * * * * * * * * * * * * * * * * * * * * * * * * * * * * * * * * * * * * //

dimensions      [0 0 0 0 0 0 0];

internalField   nonuniform List<scalar> 
25
(
1.16182e-11
1.02304e-12
4.68472e-14
8.49363e-16
6.68174e-18
5.84221e-12
5.51336e-13
2.61383e-14
4.78e-16
3.76808e-18
1.87493e-12
2.39369e-13
1.19593e-14
2.2225e-16
1.76273e-18
6.01752e-13
1.73081e-13
8.07425e-15
1.45006e-16
1.13209e-18
2.44082e-13
1.11955e-13
5.42413e-15
9.84558e-17
7.70449e-19
)
;

boundaryField
{
    fuel
    {
        type            fixedValue;
        value           nonuniform List<scalar> 0();
    }
    air
    {
        type            fixedValue;
        value           uniform 0;
    }
    outlet
    {
        type            inletOutlet;
        inletValue      uniform 0;
        value           nonuniform List<scalar> 5(2.44082e-13 1.11955e-13 5.42413e-15 9.84558e-17 7.70449e-19);
    }
    frontAndBack
    {
        type            empty;
    }
    procBoundary3to1
    {
        type            processor;
        value           nonuniform List<scalar> 5(1.16234e-11 1.02346e-12 4.68666e-14 8.49725e-16 6.68461e-18);
    }
    procBoundary3to2
    {
        type            processor;
        value           nonuniform List<scalar> 5(1.44093e-12 7.68148e-13 2.77383e-13 9.45116e-14 3.68336e-14);
    }
}


// ************************************************************************* //
