/*--------------------------------*- C++ -*----------------------------------*\
  =========                 |
  \\      /  F ield         | OpenFOAM: The Open Source CFD Toolbox
   \\    /   O peration     | Website:  https://openfoam.org
    \\  /    A nd           | Version:  8
     \\/     M anipulation  |
\*---------------------------------------------------------------------------*/
FoamFile
{
    version     2.0;
    format      ascii;
    class       volScalarField;
    location    "0.05";
    object      HCCOH;
}
// * * * * * * * * * * * * * * * * * * * * * * * * * * * * * * * * * * * * * //

dimensions      [0 0 0 0 0 0 0];

internalField   nonuniform List<scalar> 
25
(
1.88436e-06
1.80607e-07
1.06448e-07
2.45486e-08
2.11906e-09
1.443e-06
1.41324e-07
9.01759e-08
2.16615e-08
1.89484e-09
9.87079e-07
9.88864e-08
7.05366e-08
1.76969e-08
1.56775e-09
6.80938e-07
6.89793e-08
5.40623e-08
1.38344e-08
1.2152e-09
5.10469e-07
5.2244e-08
4.36512e-08
1.12063e-08
9.57741e-10
)
;

boundaryField
{
    fuel
    {
        type            fixedValue;
        value           nonuniform List<scalar> 0();
    }
    air
    {
        type            fixedValue;
        value           uniform 0;
    }
    outlet
    {
        type            inletOutlet;
        inletValue      uniform 0;
        value           nonuniform List<scalar> 5(5.10469e-07 5.2244e-08 4.36512e-08 1.12063e-08 9.57741e-10);
    }
    frontAndBack
    {
        type            empty;
    }
    procBoundary3to1
    {
        type            processor;
        value           nonuniform List<scalar> 5(1.88441e-06 1.80613e-07 1.06452e-07 2.45497e-08 2.11917e-09);
    }
    procBoundary3to2
    {
        type            processor;
        value           nonuniform List<scalar> 5(1.18759e-06 9.95807e-07 7.71748e-07 5.90513e-07 4.52865e-07);
    }
}


// ************************************************************************* //
