/*--------------------------------*- C++ -*----------------------------------*\
  =========                 |
  \\      /  F ield         | OpenFOAM: The Open Source CFD Toolbox
   \\    /   O peration     | Website:  https://openfoam.org
    \\  /    A nd           | Version:  8
     \\/     M anipulation  |
\*---------------------------------------------------------------------------*/
FoamFile
{
    version     2.0;
    format      ascii;
    class       volScalarField;
    location    "0.05";
    object      HCO;
}
// * * * * * * * * * * * * * * * * * * * * * * * * * * * * * * * * * * * * * //

dimensions      [0 0 0 0 0 0 0];

internalField   nonuniform List<scalar> 
25
(
1.79965e-07
1.57795e-08
9.04416e-10
1.8825e-11
2.43672e-13
1.25986e-07
1.12308e-08
6.64685e-10
1.43136e-11
2.00752e-13
5.69245e-08
5.55267e-09
3.81892e-10
9.28086e-12
1.52458e-13
2.32021e-08
2.44914e-09
2.20217e-10
6.51351e-12
1.22243e-13
1.10829e-08
1.24431e-09
1.61632e-10
5.73254e-12
1.12983e-13
)
;

boundaryField
{
    fuel
    {
        type            fixedValue;
        value           nonuniform List<scalar> 0();
    }
    air
    {
        type            fixedValue;
        value           uniform 0;
    }
    outlet
    {
        type            inletOutlet;
        inletValue      uniform 0;
        value           nonuniform List<scalar> 5(1.10829e-08 1.24431e-09 1.61632e-10 5.73254e-12 1.12983e-13);
    }
    frontAndBack
    {
        type            empty;
    }
    procBoundary3to1
    {
        type            processor;
        value           nonuniform List<scalar> 5(1.79983e-07 1.57809e-08 9.04585e-10 1.88288e-11 2.4372e-13);
    }
    procBoundary3to2
    {
        type            processor;
        value           nonuniform List<scalar> 5(2.32594e-08 1.68693e-08 8.26469e-09 3.57296e-09 1.63613e-09);
    }
}


// ************************************************************************* //
