/*--------------------------------*- C++ -*----------------------------------*\
  =========                 |
  \\      /  F ield         | OpenFOAM: The Open Source CFD Toolbox
   \\    /   O peration     | Website:  https://openfoam.org
    \\  /    A nd           | Version:  8
     \\/     M anipulation  |
\*---------------------------------------------------------------------------*/
FoamFile
{
    version     2.0;
    format      ascii;
    class       volScalarField;
    location    "0.05";
    object      N2;
}
// * * * * * * * * * * * * * * * * * * * * * * * * * * * * * * * * * * * * * //

dimensions      [0 0 0 0 0 0 0];

internalField   nonuniform List<scalar> 
25
(
0.818415
0.822743
0.80953
0.789128
0.774658
0.821384
0.82468
0.810602
0.789463
0.774683
0.826768
0.828283
0.812744
0.7903
0.774844
0.833601
0.83305
0.81581
0.791607
0.775144
0.840047
0.837488
0.819116
0.793338
0.775564
)
;

boundaryField
{
    fuel
    {
        type            fixedValue;
        value           nonuniform List<scalar> 0();
    }
    air
    {
        type            fixedValue;
        value           uniform 0.77;
    }
    outlet
    {
        type            inletOutlet;
        inletValue      uniform 1;
        value           nonuniform List<scalar> 5(0.840047 0.837488 0.819116 0.793338 0.775564);
    }
    frontAndBack
    {
        type            empty;
    }
    procBoundary3to1
    {
        type            processor;
        value           nonuniform List<scalar> 5(0.818414 0.822744 0.809531 0.789128 0.774658);
    }
    procBoundary3to2
    {
        type            processor;
        value           nonuniform List<scalar> 5(0.767913 0.771774 0.779006 0.788357 0.79928);
    }
}


// ************************************************************************* //
