/*--------------------------------*- C++ -*----------------------------------*\
  =========                 |
  \\      /  F ield         | OpenFOAM: The Open Source CFD Toolbox
   \\    /   O peration     | Website:  https://openfoam.org
    \\  /    A nd           | Version:  8
     \\/     M anipulation  |
\*---------------------------------------------------------------------------*/
FoamFile
{
    version     2.0;
    format      ascii;
    class       surfaceScalarField;
    location    "0.05";
    object      phi;
}
// * * * * * * * * * * * * * * * * * * * * * * * * * * * * * * * * * * * * * //

dimensions      [1 0 -1 0 0 0 0];

internalField   nonuniform List<scalar> 
40
(
-1.3975e-06
5.93045e-07
-1.90086e-06
5.37035e-07
-2.59768e-06
7.40844e-07
-3.92394e-06
7.61155e-07
3.9413e-07
-1.38522e-06
1.20241e-06
-1.88796e-06
1.07906e-06
-2.59383e-06
1.49915e-06
-3.94843e-06
1.55026e-06
7.73508e-07
-1.33881e-06
1.84647e-06
-1.8315e-06
1.63848e-06
-2.55033e-06
2.29155e-06
-3.92706e-06
2.37095e-06
1.18056e-06
-1.22788e-06
2.4889e-06
-1.68301e-06
2.1975e-06
-2.46511e-06
3.16791e-06
-3.92637e-06
3.28609e-06
1.60032e-06
-1.0253e-06
-1.40506e-06
-2.26903e-06
-3.79277e-06
)
;

boundaryField
{
    fuel
    {
        type            calculated;
        value           nonuniform List<scalar> 0();
    }
    air
    {
        type            calculated;
        value           nonuniform List<scalar> 5(-4.73529e-06 -4.73529e-06 -4.73529e-06 -4.73529e-06 -4.73529e-06);
    }
    outlet
    {
        type            calculated;
        value           nonuniform List<scalar> 5(3.06517e-06 2.7064e-06 4.12231e-06 4.25876e-06 2.16637e-06);
    }
    frontAndBack
    {
        type            empty;
        value           nonuniform List<scalar> 0();
    }
    procBoundary3to1
    {
        type            processor;
        value           nonuniform List<scalar> 5(-2.59649e-10 -9.49074e-11 -1.94826e-10 -2.64164e-10 5.46079e-10);
    }
    procBoundary3to2
    {
        type            processor;
        value           nonuniform List<scalar> 5(9.14242e-07 8.96834e-07 8.55105e-07 7.826e-07 6.65416e-07);
    }
}


// ************************************************************************* //
