/*--------------------------------*- C++ -*----------------------------------*\
  =========                 |
  \\      /  F ield         | OpenFOAM: The Open Source CFD Toolbox
   \\    /   O peration     | Website:  https://openfoam.org
    \\  /    A nd           | Version:  8
     \\/     M anipulation  |
\*---------------------------------------------------------------------------*/
FoamFile
{
    version     2.0;
    format      ascii;
    class       volScalarField;
    location    "0.05";
    object      T;
}
// * * * * * * * * * * * * * * * * * * * * * * * * * * * * * * * * * * * * * //

dimensions      [0 0 0 1 0 0 0];

internalField   nonuniform List<scalar> 
25
(
1535.25
1692.2
910.789
499.767
335.699
1506.1
1676.58
901.545
496.395
334.873
1462.43
1651.9
889.109
492.391
334.05
1423.02
1629.11
878.637
488.38
333.005
1394.19
1618.74
877
488.327
332.315
)
;

boundaryField
{
    fuel
    {
        type            fixedValue;
        value           nonuniform List<scalar> 0();
    }
    air
    {
        type            fixedValue;
        value           uniform 293;
    }
    outlet
    {
        type            inletOutlet;
        inletValue      uniform 293;
        value           nonuniform List<scalar> 5(1377.5 1605.45 874.21 493.512 333.947);
    }
    frontAndBack
    {
        type            empty;
    }
    procBoundary3to1
    {
        type            processor;
        value           nonuniform List<scalar> 5(1535.25 1692.21 910.803 499.773 335.7);
    }
    procBoundary3to2
    {
        type            processor;
        value           nonuniform List<scalar> 5(1225.51 1209.79 1185 1160.11 1136.96);
    }
}


// ************************************************************************* //
