/*--------------------------------*- C++ -*----------------------------------*\
  =========                 |
  \\      /  F ield         | OpenFOAM: The Open Source CFD Toolbox
   \\    /   O peration     | Website:  https://openfoam.org
    \\  /    A nd           | Version:  8
     \\/     M anipulation  |
\*---------------------------------------------------------------------------*/
FoamFile
{
    version     2.0;
    format      ascii;
    class       volScalarField;
    location    "0.2";
    object      C;
}
// * * * * * * * * * * * * * * * * * * * * * * * * * * * * * * * * * * * * * //

dimensions      [0 0 0 0 0 0 0];

internalField   nonuniform List<scalar> 
25
(
5.88048e-17
4.45852e-15
2.22111e-13
5.39527e-12
4.56347e-11
6.25942e-17
4.75307e-15
2.38404e-13
5.88482e-12
5.33107e-11
6.82402e-17
5.18511e-15
2.61292e-13
6.5258e-12
6.0737e-11
7.18824e-17
5.47583e-15
2.77735e-13
7.00602e-12
6.58148e-11
7.38476e-17
5.62035e-15
2.8492e-13
7.19631e-12
6.79098e-11
)
;

boundaryField
{
    fuel
    {
        type            fixedValue;
        value           uniform 0;
    }
    air
    {
        type            fixedValue;
        value           nonuniform List<scalar> 0();
    }
    outlet
    {
        type            inletOutlet;
        inletValue      uniform 0;
        value           nonuniform List<scalar> 5(5.88048e-17 4.45852e-15 2.22111e-13 5.39527e-12 4.56347e-11);
    }
    frontAndBack
    {
        type            empty;
    }
    procBoundary0to1
    {
        type            processor;
        value           nonuniform List<scalar> 5(2.38602e-10 2.82498e-10 3.22567e-10 3.49246e-10 3.59784e-10);
    }
    procBoundary0to2
    {
        type            processor;
        value           nonuniform List<scalar> 5(7.38446e-17 5.62012e-15 2.84909e-13 7.19605e-12 6.79075e-11);
    }
}


// ************************************************************************* //
