/*--------------------------------*- C++ -*----------------------------------*\
  =========                 |
  \\      /  F ield         | OpenFOAM: The Open Source CFD Toolbox
   \\    /   O peration     | Website:  https://openfoam.org
    \\  /    A nd           | Version:  8
     \\/     M anipulation  |
\*---------------------------------------------------------------------------*/
FoamFile
{
    version     2.0;
    format      ascii;
    class       volScalarField;
    location    "0.2";
    object      C2H;
}
// * * * * * * * * * * * * * * * * * * * * * * * * * * * * * * * * * * * * * //

dimensions      [0 0 0 0 0 0 0];

internalField   nonuniform List<scalar> 
25
(
2.74007e-14
2.08724e-12
1.05143e-10
2.60171e-09
2.26141e-08
2.68812e-14
2.04556e-12
1.03194e-10
2.57061e-09
2.3554e-08
2.74222e-14
2.08485e-12
1.05267e-10
2.63682e-09
2.46162e-08
2.77402e-14
2.11299e-12
1.07186e-10
2.70397e-09
2.5385e-08
2.79893e-14
2.12967e-12
1.07928e-10
2.72438e-09
2.56769e-08
)
;

boundaryField
{
    fuel
    {
        type            fixedValue;
        value           uniform 0;
    }
    air
    {
        type            fixedValue;
        value           nonuniform List<scalar> 0();
    }
    outlet
    {
        type            inletOutlet;
        inletValue      uniform 0;
        value           nonuniform List<scalar> 5(2.74007e-14 2.08724e-12 1.05143e-10 2.60171e-09 2.26141e-08);
    }
    frontAndBack
    {
        type            empty;
    }
    procBoundary0to1
    {
        type            processor;
        value           nonuniform List<scalar> 5(1.22511e-07 1.26226e-07 1.30904e-07 1.3436e-07 1.35655e-07);
    }
    procBoundary0to2
    {
        type            processor;
        value           nonuniform List<scalar> 5(2.79888e-14 2.12963e-12 1.07926e-10 2.72434e-09 2.56766e-08);
    }
}


// ************************************************************************* //
