/*--------------------------------*- C++ -*----------------------------------*\
  =========                 |
  \\      /  F ield         | OpenFOAM: The Open Source CFD Toolbox
   \\    /   O peration     | Website:  https://openfoam.org
    \\  /    A nd           | Version:  8
     \\/     M anipulation  |
\*---------------------------------------------------------------------------*/
FoamFile
{
    version     2.0;
    format      ascii;
    class       volScalarField;
    location    "0.2";
    object      C2H2;
}
// * * * * * * * * * * * * * * * * * * * * * * * * * * * * * * * * * * * * * //

dimensions      [0 0 0 0 0 0 0];

internalField   nonuniform List<scalar> 
25
(
4.81484e-05
0.000405113
0.00190284
0.00499236
0.00720802
4.74867e-05
0.00039769
0.00184419
0.00477801
0.00685967
4.70522e-05
0.000393364
0.00180429
0.00460847
0.00651903
4.64456e-05
0.000387038
0.00176807
0.00448948
0.00628538
4.63502e-05
0.000386027
0.00175402
0.00442683
0.00617434
)
;

boundaryField
{
    fuel
    {
        type            fixedValue;
        value           uniform 0;
    }
    air
    {
        type            fixedValue;
        value           nonuniform List<scalar> 0();
    }
    outlet
    {
        type            inletOutlet;
        inletValue      uniform 0;
        value           nonuniform List<scalar> 5(4.81484e-05 0.000405113 0.00190284 0.00499236 0.00720802);
    }
    frontAndBack
    {
        type            empty;
    }
    procBoundary0to1
    {
        type            processor;
        value           nonuniform List<scalar> 5(0.00887068 0.00815071 0.0075085 0.00710815 0.00694781);
    }
    procBoundary0to2
    {
        type            processor;
        value           nonuniform List<scalar> 5(4.63499e-05 0.000386023 0.001754 0.00442682 0.00617443);
    }
}


// ************************************************************************* //
