/*--------------------------------*- C++ -*----------------------------------*\
  =========                 |
  \\      /  F ield         | OpenFOAM: The Open Source CFD Toolbox
   \\    /   O peration     | Website:  https://openfoam.org
    \\  /    A nd           | Version:  8
     \\/     M anipulation  |
\*---------------------------------------------------------------------------*/
FoamFile
{
    version     2.0;
    format      ascii;
    class       volScalarField;
    location    "0.2";
    object      C2H4;
}
// * * * * * * * * * * * * * * * * * * * * * * * * * * * * * * * * * * * * * //

dimensions      [0 0 0 0 0 0 0];

internalField   nonuniform List<scalar> 
25
(
3.98903e-06
3.01549e-05
0.000128632
0.000320403
0.00043886
3.96023e-06
2.98161e-05
0.000125804
0.000312549
0.000443202
3.94477e-06
2.96424e-05
0.000123584
0.000302197
0.000419766
3.90894e-06
2.9259e-05
0.00012133
0.000294375
0.000404243
3.90683e-06
2.92259e-05
0.000120472
0.000290314
0.000397309
)
;

boundaryField
{
    fuel
    {
        type            fixedValue;
        value           uniform 0;
    }
    air
    {
        type            fixedValue;
        value           nonuniform List<scalar> 0();
    }
    outlet
    {
        type            inletOutlet;
        inletValue      uniform 0;
        value           nonuniform List<scalar> 5(3.98903e-06 3.01549e-05 0.000128632 0.000320403 0.00043886);
    }
    frontAndBack
    {
        type            empty;
    }
    procBoundary0to1
    {
        type            processor;
        value           nonuniform List<scalar> 5(0.000217067 0.000166005 0.000132171 0.000116852 0.000111518);
    }
    procBoundary0to2
    {
        type            processor;
        value           nonuniform List<scalar> 5(3.9047e-06 2.92143e-05 0.00012045 0.000290298 0.000397307);
    }
}


// ************************************************************************* //
