/*--------------------------------*- C++ -*----------------------------------*\
  =========                 |
  \\      /  F ield         | OpenFOAM: The Open Source CFD Toolbox
   \\    /   O peration     | Website:  https://openfoam.org
    \\  /    A nd           | Version:  8
     \\/     M anipulation  |
\*---------------------------------------------------------------------------*/
FoamFile
{
    version     2.0;
    format      ascii;
    class       volScalarField;
    location    "0.2";
    object      C2H5;
}
// * * * * * * * * * * * * * * * * * * * * * * * * * * * * * * * * * * * * * //

dimensions      [0 0 0 0 0 0 0];

internalField   nonuniform List<scalar> 
25
(
7.91861e-11
6.43539e-10
4.22265e-09
1.057e-08
8.91024e-08
7.83006e-11
6.32615e-10
4.11822e-09
1.06636e-08
8.48321e-08
7.80378e-11
6.2927e-10
4.06065e-09
1.0637e-08
7.961e-08
7.7644e-11
6.25745e-10
4.04842e-09
1.06691e-08
7.72259e-08
7.75953e-11
6.24983e-10
4.03096e-09
1.06661e-08
7.63e-08
)
;

boundaryField
{
    fuel
    {
        type            fixedValue;
        value           uniform 0;
    }
    air
    {
        type            fixedValue;
        value           nonuniform List<scalar> 0();
    }
    outlet
    {
        type            inletOutlet;
        inletValue      uniform 0;
        value           nonuniform List<scalar> 5(7.91861e-11 6.43539e-10 4.22265e-09 1.057e-08 8.91024e-08);
    }
    frontAndBack
    {
        type            empty;
    }
    procBoundary0to1
    {
        type            processor;
        value           nonuniform List<scalar> 5(3.15792e-07 2.43275e-07 1.91125e-07 1.67693e-07 1.59727e-07);
    }
    procBoundary0to2
    {
        type            processor;
        value           nonuniform List<scalar> 5(7.75594e-11 6.24785e-10 4.03021e-09 1.06655e-08 7.63007e-08);
    }
}


// ************************************************************************* //
