/*--------------------------------*- C++ -*----------------------------------*\
  =========                 |
  \\      /  F ield         | OpenFOAM: The Open Source CFD Toolbox
   \\    /   O peration     | Website:  https://openfoam.org
    \\  /    A nd           | Version:  8
     \\/     M anipulation  |
\*---------------------------------------------------------------------------*/
FoamFile
{
    version     2.0;
    format      ascii;
    class       volScalarField;
    location    "0.2";
    object      C3H8;
}
// * * * * * * * * * * * * * * * * * * * * * * * * * * * * * * * * * * * * * //

dimensions      [0 0 0 0 0 0 0];

internalField   nonuniform List<scalar> 
25
(
1.1711e-08
9.46974e-08
4.2443e-07
1.0213e-06
1.14006e-06
1.16969e-08
9.43534e-08
4.20757e-07
1.02976e-06
1.28484e-06
1.17151e-08
9.43635e-08
4.16927e-07
1.01035e-06
1.24072e-06
1.16434e-08
9.34531e-08
4.11172e-07
9.90462e-07
1.20244e-06
1.16546e-08
9.34968e-08
4.09141e-07
9.79596e-07
1.18571e-06
)
;

boundaryField
{
    fuel
    {
        type            fixedValue;
        value           uniform 0;
    }
    air
    {
        type            fixedValue;
        value           nonuniform List<scalar> 0();
    }
    outlet
    {
        type            inletOutlet;
        inletValue      uniform 0;
        value           nonuniform List<scalar> 5(1.1711e-08 9.46974e-08 4.2443e-07 1.0213e-06 1.14006e-06);
    }
    frontAndBack
    {
        type            empty;
    }
    procBoundary0to1
    {
        type            processor;
        value           nonuniform List<scalar> 5(1.45145e-07 1.51904e-07 1.46152e-07 1.41338e-07 1.3921e-07);
    }
    procBoundary0to2
    {
        type            processor;
        value           nonuniform List<scalar> 5(1.16425e-08 9.34323e-08 4.09025e-07 9.79538e-07 1.18574e-06);
    }
}


// ************************************************************************* //
