/*--------------------------------*- C++ -*----------------------------------*\
  =========                 |
  \\      /  F ield         | OpenFOAM: The Open Source CFD Toolbox
   \\    /   O peration     | Website:  https://openfoam.org
    \\  /    A nd           | Version:  8
     \\/     M anipulation  |
\*---------------------------------------------------------------------------*/
FoamFile
{
    version     2.0;
    format      ascii;
    class       volScalarField;
    location    "0.2";
    object      CH2;
}
// * * * * * * * * * * * * * * * * * * * * * * * * * * * * * * * * * * * * * //

dimensions      [0 0 0 0 0 0 0];

internalField   nonuniform List<scalar> 
25
(
9.72459e-14
5.48894e-12
2.75358e-10
6.86602e-09
6.07316e-08
8.97905e-14
5.06006e-12
2.53231e-10
6.32175e-09
5.84294e-08
8.62175e-14
4.87653e-12
2.43425e-10
6.0789e-09
5.68259e-08
8.42289e-14
4.79216e-12
2.39964e-10
6.02363e-09
5.65059e-08
8.36221e-14
4.76985e-12
2.38586e-10
5.99115e-09
5.64167e-08
)
;

boundaryField
{
    fuel
    {
        type            fixedValue;
        value           uniform 0;
    }
    air
    {
        type            fixedValue;
        value           nonuniform List<scalar> 0();
    }
    outlet
    {
        type            inletOutlet;
        inletValue      uniform 0;
        value           nonuniform List<scalar> 5(9.72459e-14 5.48894e-12 2.75358e-10 6.86602e-09 6.07316e-08);
    }
    frontAndBack
    {
        type            empty;
    }
    procBoundary0to1
    {
        type            processor;
        value           nonuniform List<scalar> 5(3.36805e-07 3.16361e-07 3.02449e-07 2.98835e-07 2.9792e-07);
    }
    procBoundary0to2
    {
        type            processor;
        value           nonuniform List<scalar> 5(8.36235e-14 4.76981e-12 2.38584e-10 5.99113e-09 5.64168e-08);
    }
}


// ************************************************************************* //
