/*--------------------------------*- C++ -*----------------------------------*\
  =========                 |
  \\      /  F ield         | OpenFOAM: The Open Source CFD Toolbox
   \\    /   O peration     | Website:  https://openfoam.org
    \\  /    A nd           | Version:  8
     \\/     M anipulation  |
\*---------------------------------------------------------------------------*/
FoamFile
{
    version     2.0;
    format      ascii;
    class       volScalarField;
    location    "0.2";
    object      CH2CHO;
}
// * * * * * * * * * * * * * * * * * * * * * * * * * * * * * * * * * * * * * //

dimensions      [0 0 0 0 0 0 0];

internalField   nonuniform List<scalar> 
25
(
7.93509e-11
7.70752e-10
1.08108e-08
9.3489e-09
1.92823e-09
7.72905e-11
7.43048e-10
1.0321e-08
9.90627e-09
1.10591e-09
7.66889e-11
7.29852e-10
1.00332e-08
9.96071e-09
1.01171e-09
7.63368e-11
7.21101e-10
9.89297e-09
1.00104e-08
9.95125e-10
7.61903e-11
7.17464e-10
9.80886e-09
1.00441e-08
9.92222e-10
)
;

boundaryField
{
    fuel
    {
        type            fixedValue;
        value           uniform 0;
    }
    air
    {
        type            fixedValue;
        value           nonuniform List<scalar> 0();
    }
    outlet
    {
        type            inletOutlet;
        inletValue      uniform 0;
        value           nonuniform List<scalar> 5(7.93509e-11 7.70752e-10 1.08108e-08 9.3489e-09 1.92823e-09);
    }
    frontAndBack
    {
        type            empty;
    }
    procBoundary0to1
    {
        type            processor;
        value           nonuniform List<scalar> 5(1.45194e-09 9.47937e-10 7.10808e-10 6.32375e-10 6.09895e-10);
    }
    procBoundary0to2
    {
        type            processor;
        value           nonuniform List<scalar> 5(7.61741e-11 7.17351e-10 9.80801e-09 1.00443e-08 9.9224e-10);
    }
}


// ************************************************************************* //
