/*--------------------------------*- C++ -*----------------------------------*\
  =========                 |
  \\      /  F ield         | OpenFOAM: The Open Source CFD Toolbox
   \\    /   O peration     | Website:  https://openfoam.org
    \\  /    A nd           | Version:  8
     \\/     M anipulation  |
\*---------------------------------------------------------------------------*/
FoamFile
{
    version     2.0;
    format      ascii;
    class       volScalarField;
    location    "0.2";
    object      CH2OH;
}
// * * * * * * * * * * * * * * * * * * * * * * * * * * * * * * * * * * * * * //

dimensions      [0 0 0 0 0 0 0];

internalField   nonuniform List<scalar> 
25
(
5.97649e-15
4.56753e-13
2.31858e-11
5.80028e-10
5.13188e-09
5.51269e-15
4.20241e-13
2.13016e-11
5.33451e-10
4.93467e-09
5.30427e-15
4.03419e-13
2.03982e-11
5.10637e-10
4.77504e-09
5.18691e-15
3.95037e-13
2.00393e-11
5.04002e-10
4.72765e-09
5.16198e-15
3.92691e-13
1.98922e-11
5.00375e-10
4.71132e-09
)
;

boundaryField
{
    fuel
    {
        type            fixedValue;
        value           uniform 0;
    }
    air
    {
        type            fixedValue;
        value           nonuniform List<scalar> 0();
    }
    outlet
    {
        type            inletOutlet;
        inletValue      uniform 0;
        value           nonuniform List<scalar> 5(5.97649e-15 4.56753e-13 2.31858e-11 5.80028e-10 5.13188e-09);
    }
    frontAndBack
    {
        type            empty;
    }
    procBoundary0to1
    {
        type            processor;
        value           nonuniform List<scalar> 5(2.84646e-08 2.6748e-08 2.54225e-08 2.49984e-08 2.48744e-08);
    }
    procBoundary0to2
    {
        type            processor;
        value           nonuniform List<scalar> 5(5.16194e-15 3.92689e-13 1.9892e-11 5.00374e-10 4.71134e-09);
    }
}


// ************************************************************************* //
