/*--------------------------------*- C++ -*----------------------------------*\
  =========                 |
  \\      /  F ield         | OpenFOAM: The Open Source CFD Toolbox
   \\    /   O peration     | Website:  https://openfoam.org
    \\  /    A nd           | Version:  8
     \\/     M anipulation  |
\*---------------------------------------------------------------------------*/
FoamFile
{
    version     2.0;
    format      ascii;
    class       volScalarField;
    location    "0.2";
    object      CH3CHO;
}
// * * * * * * * * * * * * * * * * * * * * * * * * * * * * * * * * * * * * * //

dimensions      [0 0 0 0 0 0 0];

internalField   nonuniform List<scalar> 
25
(
1.61367e-09
1.33179e-08
5.93055e-08
1.35298e-07
1.41556e-08
1.61735e-09
1.3347e-08
5.95472e-08
1.40648e-07
1.38173e-08
1.62518e-09
1.34262e-08
5.97994e-08
1.4232e-07
1.35197e-08
1.61975e-09
1.33589e-08
5.955e-08
1.42425e-07
1.33538e-08
1.62536e-09
1.3411e-08
5.9619e-08
1.42486e-07
1.32997e-08
)
;

boundaryField
{
    fuel
    {
        type            fixedValue;
        value           uniform 0;
    }
    air
    {
        type            fixedValue;
        value           nonuniform List<scalar> 0();
    }
    outlet
    {
        type            inletOutlet;
        inletValue      uniform 0;
        value           nonuniform List<scalar> 5(1.61367e-09 1.33179e-08 5.93055e-08 1.35298e-07 1.41556e-08);
    }
    frontAndBack
    {
        type            empty;
    }
    procBoundary0to1
    {
        type            processor;
        value           nonuniform List<scalar> 5(1.23698e-08 7.98427e-09 5.60502e-09 4.74771e-09 4.50851e-09);
    }
    procBoundary0to2
    {
        type            processor;
        value           nonuniform List<scalar> 5(1.62509e-09 1.34095e-08 5.96158e-08 1.42484e-07 1.32995e-08);
    }
}


// ************************************************************************* //
