/*--------------------------------*- C++ -*----------------------------------*\
  =========                 |
  \\      /  F ield         | OpenFOAM: The Open Source CFD Toolbox
   \\    /   O peration     | Website:  https://openfoam.org
    \\  /    A nd           | Version:  8
     \\/     M anipulation  |
\*---------------------------------------------------------------------------*/
FoamFile
{
    version     2.0;
    format      ascii;
    class       volScalarField;
    location    "0.2";
    object      CH4;
}
// * * * * * * * * * * * * * * * * * * * * * * * * * * * * * * * * * * * * * //

dimensions      [0 0 0 0 0 0 0];

internalField   nonuniform List<scalar> 
25
(
0.993979
0.949254
0.761029
0.380371
0.13936
0.99401
0.949638
0.764477
0.389398
0.139259
0.994011
0.949627
0.765533
0.392759
0.138759
0.994046
0.950001
0.767167
0.394841
0.138444
0.994032
0.949867
0.767251
0.396034
0.138427
)
;

boundaryField
{
    fuel
    {
        type            fixedValue;
        value           uniform 1;
    }
    air
    {
        type            fixedValue;
        value           nonuniform List<scalar> 0();
    }
    outlet
    {
        type            inletOutlet;
        inletValue      uniform 0;
        value           nonuniform List<scalar> 5(0.993979 0.949254 0.761029 0.380371 0.13936);
    }
    frontAndBack
    {
        type            empty;
    }
    procBoundary0to1
    {
        type            processor;
        value           nonuniform List<scalar> 5(0.0213037 0.020254 0.0194857 0.0190958 0.0189699);
    }
    procBoundary0to2
    {
        type            processor;
        value           nonuniform List<scalar> 5(0.994032 0.949868 0.767251 0.396035 0.138429);
    }
}


// ************************************************************************* //
