/*--------------------------------*- C++ -*----------------------------------*\
  =========                 |
  \\      /  F ield         | OpenFOAM: The Open Source CFD Toolbox
   \\    /   O peration     | Website:  https://openfoam.org
    \\  /    A nd           | Version:  8
     \\/     M anipulation  |
\*---------------------------------------------------------------------------*/
FoamFile
{
    version     2.0;
    format      ascii;
    class       volScalarField;
    location    "0.2";
    object      CN;
}
// * * * * * * * * * * * * * * * * * * * * * * * * * * * * * * * * * * * * * //

dimensions      [0 0 0 0 0 0 0];

internalField   nonuniform List<scalar> 
25
(
2.6128e-17
1.97687e-15
9.8005e-14
2.36242e-12
1.97767e-11
2.87797e-17
2.18115e-15
1.08883e-13
2.66696e-12
2.38958e-11
3.28518e-17
2.49383e-15
1.25361e-13
3.11849e-12
2.88698e-11
3.60183e-17
2.74363e-15
1.39103e-13
3.50718e-12
3.29415e-11
3.78414e-17
2.88089e-15
1.461e-13
3.69279e-12
3.49031e-11
)
;

boundaryField
{
    fuel
    {
        type            fixedValue;
        value           uniform 0;
    }
    air
    {
        type            fixedValue;
        value           nonuniform List<scalar> 0();
    }
    outlet
    {
        type            inletOutlet;
        inletValue      uniform 0;
        value           nonuniform List<scalar> 5(2.6128e-17 1.97687e-15 9.8005e-14 2.36242e-12 1.97767e-11);
    }
    frontAndBack
    {
        type            empty;
    }
    procBoundary0to1
    {
        type            processor;
        value           nonuniform List<scalar> 5(1.01977e-10 1.24607e-10 1.52105e-10 1.74611e-10 1.85086e-10);
    }
    procBoundary0to2
    {
        type            processor;
        value           nonuniform List<scalar> 5(3.78396e-17 2.88074e-15 1.46093e-13 3.69258e-12 3.49007e-11);
    }
}


// ************************************************************************* //
