/*--------------------------------*- C++ -*----------------------------------*\
  =========                 |
  \\      /  F ield         | OpenFOAM: The Open Source CFD Toolbox
   \\    /   O peration     | Website:  https://openfoam.org
    \\  /    A nd           | Version:  8
     \\/     M anipulation  |
\*---------------------------------------------------------------------------*/
FoamFile
{
    version     2.0;
    format      ascii;
    class       volScalarField;
    location    "0.2";
    object      CO2;
}
// * * * * * * * * * * * * * * * * * * * * * * * * * * * * * * * * * * * * * //

dimensions      [0 0 0 0 0 0 0];

internalField   nonuniform List<scalar> 
25
(
0.000420594
0.00366648
0.0177994
0.0470495
0.066109
0.00041767
0.0036317
0.0175004
0.0461892
0.0657126
0.000416935
0.00362617
0.0173824
0.0457682
0.065363
0.000413956
0.00359432
0.0172325
0.0454962
0.0651337
0.000414611
0.00360106
0.0172106
0.0453484
0.065021
)
;

boundaryField
{
    fuel
    {
        type            fixedValue;
        value           uniform 0;
    }
    air
    {
        type            fixedValue;
        value           nonuniform List<scalar> 0();
    }
    outlet
    {
        type            inletOutlet;
        inletValue      uniform 0;
        value           nonuniform List<scalar> 5(0.000420594 0.00366648 0.0177994 0.0470495 0.066109);
    }
    frontAndBack
    {
        type            empty;
    }
    procBoundary0to1
    {
        type            processor;
        value           nonuniform List<scalar> 5(0.0761009 0.0753311 0.0746641 0.0742712 0.0741246);
    }
    procBoundary0to2
    {
        type            processor;
        value           nonuniform List<scalar> 5(0.000414608 0.00360104 0.0172105 0.0453482 0.0650208);
    }
}


// ************************************************************************* //
