/*--------------------------------*- C++ -*----------------------------------*\
  =========                 |
  \\      /  F ield         | OpenFOAM: The Open Source CFD Toolbox
   \\    /   O peration     | Website:  https://openfoam.org
    \\  /    A nd           | Version:  8
     \\/     M anipulation  |
\*---------------------------------------------------------------------------*/
FoamFile
{
    version     2.0;
    format      ascii;
    class       volScalarField;
    location    "0.2";
    object      HCN;
}
// * * * * * * * * * * * * * * * * * * * * * * * * * * * * * * * * * * * * * //

dimensions      [0 0 0 0 0 0 0];

internalField   nonuniform List<scalar> 
25
(
3.74136e-08
3.14031e-07
1.48991e-06
3.87109e-06
5.22712e-06
3.76201e-08
3.15631e-07
1.49597e-06
3.93514e-06
5.50802e-06
3.80389e-08
3.19897e-07
1.51885e-06
4.04627e-06
5.82555e-06
3.817e-08
3.20912e-07
1.53181e-06
4.13699e-06
6.07322e-06
3.8474e-08
3.23882e-07
1.54543e-06
4.18797e-06
6.20314e-06
)
;

boundaryField
{
    fuel
    {
        type            fixedValue;
        value           uniform 0;
    }
    air
    {
        type            fixedValue;
        value           nonuniform List<scalar> 0();
    }
    outlet
    {
        type            inletOutlet;
        inletValue      uniform 0;
        value           nonuniform List<scalar> 5(3.74136e-08 3.14031e-07 1.48991e-06 3.87109e-06 5.22712e-06);
    }
    frontAndBack
    {
        type            empty;
    }
    procBoundary0to1
    {
        type            processor;
        value           nonuniform List<scalar> 5(5.53897e-06 6.07877e-06 6.65495e-06 7.09182e-06 7.29923e-06);
    }
    procBoundary0to2
    {
        type            processor;
        value           nonuniform List<scalar> 5(3.84738e-08 3.23883e-07 1.54544e-06 4.18794e-06 6.20301e-06);
    }
}


// ************************************************************************* //
