/*--------------------------------*- C++ -*----------------------------------*\
  =========                 |
  \\      /  F ield         | OpenFOAM: The Open Source CFD Toolbox
   \\    /   O peration     | Website:  https://openfoam.org
    \\  /    A nd           | Version:  8
     \\/     M anipulation  |
\*---------------------------------------------------------------------------*/
FoamFile
{
    version     2.0;
    format      ascii;
    class       volScalarField;
    location    "0.2";
    object      HCNN;
}
// * * * * * * * * * * * * * * * * * * * * * * * * * * * * * * * * * * * * * //

dimensions      [0 0 0 0 0 0 0];

internalField   nonuniform List<scalar> 
25
(
1.68396e-18
1.28502e-16
6.49975e-15
1.61872e-13
1.41923e-12
1.59876e-18
1.21835e-16
6.16873e-15
1.54572e-13
1.42788e-12
1.56496e-18
1.19018e-16
6.01606e-15
1.50943e-13
1.4112e-12
1.54367e-18
1.1757e-16
5.96404e-15
1.5044e-13
1.41143e-12
1.54175e-18
1.17292e-16
5.94312e-15
1.49969e-13
1.41244e-12
)
;

boundaryField
{
    fuel
    {
        type            fixedValue;
        value           uniform 0;
    }
    air
    {
        type            fixedValue;
        value           nonuniform List<scalar> 0();
    }
    outlet
    {
        type            inletOutlet;
        inletValue      uniform 0;
        value           nonuniform List<scalar> 5(1.68396e-18 1.28502e-16 6.49975e-15 1.61872e-13 1.41923e-12);
    }
    frontAndBack
    {
        type            empty;
    }
    procBoundary0to1
    {
        type            processor;
        value           nonuniform List<scalar> 5(7.77466e-12 7.73738e-12 7.51489e-12 7.46624e-12 7.46039e-12);
    }
    procBoundary0to2
    {
        type            processor;
        value           nonuniform List<scalar> 5(1.54172e-18 1.17291e-16 5.94305e-15 1.49968e-13 1.41244e-12);
    }
}


// ************************************************************************* //
