/*--------------------------------*- C++ -*----------------------------------*\
  =========                 |
  \\      /  F ield         | OpenFOAM: The Open Source CFD Toolbox
   \\    /   O peration     | Website:  https://openfoam.org
    \\  /    A nd           | Version:  8
     \\/     M anipulation  |
\*---------------------------------------------------------------------------*/
FoamFile
{
    version     2.0;
    format      ascii;
    class       volScalarField;
    location    "0.2";
    object      HCO;
}
// * * * * * * * * * * * * * * * * * * * * * * * * * * * * * * * * * * * * * //

dimensions      [0 0 0 0 0 0 0];

internalField   nonuniform List<scalar> 
25
(
3.87872e-13
4.31781e-12
8.97058e-11
8.89308e-10
6.50077e-09
3.77341e-13
4.15188e-12
8.54685e-11
8.52598e-10
6.64191e-09
3.73948e-13
4.06771e-12
8.28479e-11
8.20883e-10
6.4761e-09
3.71942e-13
4.01305e-12
8.1635e-11
8.10817e-10
6.43945e-09
3.7112e-13
3.99286e-12
8.10151e-11
8.05249e-10
6.43e-09
)
;

boundaryField
{
    fuel
    {
        type            fixedValue;
        value           uniform 0;
    }
    air
    {
        type            fixedValue;
        value           nonuniform List<scalar> 0();
    }
    outlet
    {
        type            inletOutlet;
        inletValue      uniform 0;
        value           nonuniform List<scalar> 5(3.87872e-13 4.31781e-12 8.97058e-11 8.89308e-10 6.50077e-09);
    }
    frontAndBack
    {
        type            empty;
    }
    procBoundary0to1
    {
        type            processor;
        value           nonuniform List<scalar> 5(3.01176e-08 2.77809e-08 2.61464e-08 2.57023e-08 2.56009e-08);
    }
    procBoundary0to2
    {
        type            processor;
        value           nonuniform List<scalar> 5(3.71044e-13 3.99238e-12 8.10113e-11 8.05241e-10 6.42995e-09);
    }
}


// ************************************************************************* //
