/*--------------------------------*- C++ -*----------------------------------*\
  =========                 |
  \\      /  F ield         | OpenFOAM: The Open Source CFD Toolbox
   \\    /   O peration     | Website:  https://openfoam.org
    \\  /    A nd           | Version:  8
     \\/     M anipulation  |
\*---------------------------------------------------------------------------*/
FoamFile
{
    version     2.0;
    format      ascii;
    class       volScalarField;
    location    "0.2";
    object      N2;
}
// * * * * * * * * * * * * * * * * * * * * * * * * * * * * * * * * * * * * * //

dimensions      [0 0 0 0 0 0 0];

internalField   nonuniform List<scalar> 
25
(
0.00447231
0.0372128
0.173171
0.445849
0.617404
0.00445043
0.0369421
0.170725
0.439545
0.61785
0.00445041
0.0369584
0.170002
0.437292
0.618577
0.00442551
0.0366899
0.168847
0.435903
0.619042
0.00443638
0.0367917
0.168802
0.435098
0.619161
)
;

boundaryField
{
    fuel
    {
        type            fixedValue;
        value           uniform 0;
    }
    air
    {
        type            fixedValue;
        value           nonuniform List<scalar> 0();
    }
    outlet
    {
        type            inletOutlet;
        inletValue      uniform 1;
        value           nonuniform List<scalar> 5(0.00447231 0.0372128 0.173171 0.445849 0.617404);
    }
    frontAndBack
    {
        type            empty;
    }
    procBoundary0to1
    {
        type            processor;
        value           nonuniform List<scalar> 5(0.701 0.702623 0.703863 0.704543 0.704781);
    }
    procBoundary0to2
    {
        type            processor;
        value           nonuniform List<scalar> 5(0.00443635 0.0367916 0.168802 0.435097 0.61916);
    }
}


// ************************************************************************* //
