/*--------------------------------*- C++ -*----------------------------------*\
  =========                 |
  \\      /  F ield         | OpenFOAM: The Open Source CFD Toolbox
   \\    /   O peration     | Website:  https://openfoam.org
    \\  /    A nd           | Version:  8
     \\/     M anipulation  |
\*---------------------------------------------------------------------------*/
FoamFile
{
    version     2.0;
    format      ascii;
    class       volScalarField;
    location    "0.2";
    object      NCO;
}
// * * * * * * * * * * * * * * * * * * * * * * * * * * * * * * * * * * * * * //

dimensions      [0 0 0 0 0 0 0];

internalField   nonuniform List<scalar> 
25
(
8.34492e-15
8.20407e-14
6.02693e-13
4.06699e-12
3.5023e-11
8.71042e-15
8.59086e-14
6.28612e-13
4.05098e-12
3.67079e-11
9.21234e-15
9.15118e-14
6.70928e-13
4.21786e-12
3.89044e-11
9.60495e-15
9.60752e-14
7.13273e-13
4.43569e-12
4.12588e-11
9.85976e-15
9.89061e-14
7.35062e-13
4.54424e-12
4.24899e-11
)
;

boundaryField
{
    fuel
    {
        type            fixedValue;
        value           uniform 0;
    }
    air
    {
        type            fixedValue;
        value           nonuniform List<scalar> 0();
    }
    outlet
    {
        type            inletOutlet;
        inletValue      uniform 0;
        value           nonuniform List<scalar> 5(8.34492e-15 8.20407e-14 6.02693e-13 4.06699e-12 3.5023e-11);
    }
    frontAndBack
    {
        type            empty;
    }
    procBoundary0to1
    {
        type            processor;
        value           nonuniform List<scalar> 5(1.8237e-10 1.86255e-10 1.95362e-10 2.07109e-10 2.13285e-10);
    }
    procBoundary0to2
    {
        type            processor;
        value           nonuniform List<scalar> 5(9.85971e-15 9.89035e-14 7.3504e-13 4.54406e-12 4.24883e-11);
    }
}


// ************************************************************************* //
