/*--------------------------------*- C++ -*----------------------------------*\
  =========                 |
  \\      /  F ield         | OpenFOAM: The Open Source CFD Toolbox
   \\    /   O peration     | Website:  https://openfoam.org
    \\  /    A nd           | Version:  8
     \\/     M anipulation  |
\*---------------------------------------------------------------------------*/
FoamFile
{
    version     2.0;
    format      ascii;
    class       volScalarField;
    location    "0.2";
    object      NNH;
}
// * * * * * * * * * * * * * * * * * * * * * * * * * * * * * * * * * * * * * //

dimensions      [0 0 0 0 0 0 0];

internalField   nonuniform List<scalar> 
25
(
3.39052e-17
2.58038e-15
1.2971e-13
3.19876e-12
2.76557e-11
3.38113e-17
2.57116e-15
1.29485e-13
3.21654e-12
2.93461e-11
3.51617e-17
2.67244e-15
1.34818e-13
3.37232e-12
3.14108e-11
3.61413e-17
2.75293e-15
1.39632e-13
3.52196e-12
3.30498e-11
3.6778e-17
2.79872e-15
1.41856e-13
3.58171e-12
3.37607e-11
)
;

boundaryField
{
    fuel
    {
        type            fixedValue;
        value           uniform 0;
    }
    air
    {
        type            fixedValue;
        value           nonuniform List<scalar> 0();
    }
    outlet
    {
        type            inletOutlet;
        inletValue      uniform 0;
        value           nonuniform List<scalar> 5(3.39052e-17 2.58038e-15 1.2971e-13 3.19876e-12 2.76557e-11);
    }
    frontAndBack
    {
        type            empty;
    }
    procBoundary0to1
    {
        type            processor;
        value           nonuniform List<scalar> 5(1.48103e-10 1.55494e-10 1.65673e-10 1.73961e-10 1.77494e-10);
    }
    procBoundary0to2
    {
        type            processor;
        value           nonuniform List<scalar> 5(3.67769e-17 2.79863e-15 1.41852e-13 3.58162e-12 3.37598e-11);
    }
}


// ************************************************************************* //
