/*--------------------------------*- C++ -*----------------------------------*\
  =========                 |
  \\      /  F ield         | OpenFOAM: The Open Source CFD Toolbox
   \\    /   O peration     | Website:  https://openfoam.org
    \\  /    A nd           | Version:  8
     \\/     M anipulation  |
\*---------------------------------------------------------------------------*/
FoamFile
{
    version     2.0;
    format      ascii;
    class       volScalarField;
    location    "0.2";
    object      NO2;
}
// * * * * * * * * * * * * * * * * * * * * * * * * * * * * * * * * * * * * * //

dimensions      [0 0 0 0 0 0 0];

internalField   nonuniform List<scalar> 
25
(
1.3702e-08
1.05491e-07
3.89383e-07
3.99509e-07
1.83871e-07
1.37131e-08
1.05557e-07
3.8885e-07
4.07188e-07
2.00635e-07
1.37803e-08
1.06314e-07
3.91107e-07
4.10418e-07
2.04278e-07
1.37533e-08
1.0604e-07
3.91174e-07
4.11177e-07
2.0493e-07
1.38148e-08
1.06652e-07
3.92682e-07
4.11858e-07
2.04987e-07
)
;

boundaryField
{
    fuel
    {
        type            fixedValue;
        value           uniform 0;
    }
    air
    {
        type            fixedValue;
        value           nonuniform List<scalar> 0();
    }
    outlet
    {
        type            inletOutlet;
        inletValue      uniform 0;
        value           nonuniform List<scalar> 5(1.3702e-08 1.05491e-07 3.89383e-07 3.99509e-07 1.83871e-07);
    }
    frontAndBack
    {
        type            empty;
    }
    procBoundary0to1
    {
        type            processor;
        value           nonuniform List<scalar> 5(1.60964e-07 1.62663e-07 1.59108e-07 1.54595e-07 1.5209e-07);
    }
    procBoundary0to2
    {
        type            processor;
        value           nonuniform List<scalar> 5(1.38141e-08 1.06648e-07 3.92674e-07 4.11856e-07 2.04992e-07);
    }
}


// ************************************************************************* //
