/*--------------------------------*- C++ -*----------------------------------*\
  =========                 |
  \\      /  F ield         | OpenFOAM: The Open Source CFD Toolbox
   \\    /   O peration     | Website:  https://openfoam.org
    \\  /    A nd           | Version:  8
     \\/     M anipulation  |
\*---------------------------------------------------------------------------*/
FoamFile
{
    version     2.0;
    format      ascii;
    class       volVectorField;
    location    "0.2";
    object      U;
}
// * * * * * * * * * * * * * * * * * * * * * * * * * * * * * * * * * * * * * //

dimensions      [0 1 -1 0 0 0 0];

internalField   nonuniform List<vector> 
25
(
(0.0991733 -0.0734799 0)
(0.0910267 -0.200401 0)
(0.0485437 -0.303817 0)
(-0.0173845 -0.373013 0)
(-0.111454 -0.357168 0)
(0.0997988 -0.0541359 0)
(0.092865 -0.131021 0)
(0.0553918 -0.199211 0)
(-0.00246616 -0.253589 0)
(-0.110681 -0.270149 0)
(0.0991992 -0.0382558 0)
(0.0909703 -0.101289 0)
(0.0553746 -0.155642 0)
(0.000503629 -0.194037 0)
(-0.112321 -0.202182 0)
(0.099521 -0.0235015 0)
(0.0921795 -0.0574913 0)
(0.0577305 -0.0870794 0)
(0.0020214 -0.112775 0)
(-0.114609 -0.121121 0)
(0.100119 -0.00775033 0)
(0.0899988 -0.0202111 0)
(0.058262 -0.0301982 0)
(0.00325499 -0.0383044 0)
(-0.114916 -0.0407506 0)
)
;

boundaryField
{
    fuel
    {
        type            fixedValue;
        value           uniform (0.1 0 0);
    }
    air
    {
        type            fixedValue;
        value           nonuniform List<vector> 0();
    }
    outlet
    {
        type            pressureInletOutletVelocity;
        value           nonuniform List<vector> 5((0.0991733 -0.0734799 0) (0.0910267 -0.200401 0) (0.0485437 -0.303817 0) (-0.0173845 -0.373013 0) (-0.111454 -0.357168 0));
    }
    frontAndBack
    {
        type            empty;
    }
    procBoundary0to1
    {
        type            processor;
        value           nonuniform List<vector> 5((-0.168338 -0.341247 0) (-0.185881 -0.261692 0) (-0.195203 -0.194489 0) (-0.199789 -0.116503 0) (-0.201279 -0.0389763 0));
    }
    procBoundary0to2
    {
        type            processor;
        value           nonuniform List<vector> 5((0.100119 0.00775043 0) (0.0899988 0.0202117 0) (0.0582617 0.0301991 0) (0.00325571 0.0383043 -6.59868e-29) (-0.114916 0.0407517 0));
    }
}


// ************************************************************************* //
