/*--------------------------------*- C++ -*----------------------------------*\
  =========                 |
  \\      /  F ield         | OpenFOAM: The Open Source CFD Toolbox
   \\    /   O peration     | Website:  https://openfoam.org
    \\  /    A nd           | Version:  8
     \\/     M anipulation  |
\*---------------------------------------------------------------------------*/
FoamFile
{
    version     2.0;
    format      ascii;
    class       volScalarField;
    location    "0.1";
    object      C2H3;
}
// * * * * * * * * * * * * * * * * * * * * * * * * * * * * * * * * * * * * * //

dimensions      [0 0 0 0 0 0 0];

internalField   nonuniform List<scalar> 
25
(
2.08317e-13
1.58059e-11
8.08401e-10
2.14718e-08
2.11357e-07
1.82785e-13
1.37763e-11
6.95398e-10
1.81299e-08
1.82104e-07
1.64556e-13
1.23349e-11
6.14211e-10
1.56951e-08
1.5629e-07
1.54207e-13
1.15419e-11
5.71955e-10
1.44689e-08
1.42493e-07
1.50521e-13
1.12412e-11
5.5436e-10
1.39395e-08
1.3732e-07
)
;

boundaryField
{
    fuel
    {
        type            fixedValue;
        value           uniform 0;
    }
    air
    {
        type            fixedValue;
        value           nonuniform List<scalar> 0();
    }
    outlet
    {
        type            inletOutlet;
        inletValue      uniform 0;
        value           nonuniform List<scalar> 5(2.08317e-13 1.58059e-11 8.08401e-10 2.14718e-08 2.11357e-07);
    }
    frontAndBack
    {
        type            empty;
    }
    procBoundary0to1
    {
        type            processor;
        value           nonuniform List<scalar> 5(1.24507e-06 1.0312e-06 8.54832e-07 7.66711e-07 7.37643e-07);
    }
    procBoundary0to2
    {
        type            processor;
        value           nonuniform List<scalar> 5(1.50037e-13 1.1204e-11 5.52447e-10 1.38876e-08 1.36731e-07);
    }
}


// ************************************************************************* //
