/*--------------------------------*- C++ -*----------------------------------*\
  =========                 |
  \\      /  F ield         | OpenFOAM: The Open Source CFD Toolbox
   \\    /   O peration     | Website:  https://openfoam.org
    \\  /    A nd           | Version:  8
     \\/     M anipulation  |
\*---------------------------------------------------------------------------*/
FoamFile
{
    version     2.0;
    format      ascii;
    class       volScalarField;
    location    "0.1";
    object      C2H4;
}
// * * * * * * * * * * * * * * * * * * * * * * * * * * * * * * * * * * * * * //

dimensions      [0 0 0 0 0 0 0];

internalField   nonuniform List<scalar> 
25
(
1.36092e-05
0.000104628
0.000436953
0.000937078
0.00104947
1.4335e-05
0.000107288
0.000432238
0.000890244
0.000945549
1.52293e-05
0.000110293
0.000428841
0.000847725
0.000852211
1.57542e-05
0.000111762
0.000424967
0.000819502
0.000797354
1.61418e-05
0.000113272
0.000423887
0.000805253
0.000774343
)
;

boundaryField
{
    fuel
    {
        type            fixedValue;
        value           uniform 0;
    }
    air
    {
        type            fixedValue;
        value           nonuniform List<scalar> 0();
    }
    outlet
    {
        type            inletOutlet;
        inletValue      uniform 0;
        value           nonuniform List<scalar> 5(1.36092e-05 0.000104628 0.000436953 0.000937078 0.00104947);
    }
    frontAndBack
    {
        type            empty;
    }
    procBoundary0to1
    {
        type            processor;
        value           nonuniform List<scalar> 5(0.000828081 0.000633123 0.000494099 0.000421163 0.000400559);
    }
    procBoundary0to2
    {
        type            processor;
        value           nonuniform List<scalar> 5(1.6142e-05 0.000113275 0.000423911 0.0008053 0.000774948);
    }
}


// ************************************************************************* //
