/*--------------------------------*- C++ -*----------------------------------*\
  =========                 |
  \\      /  F ield         | OpenFOAM: The Open Source CFD Toolbox
   \\    /   O peration     | Website:  https://openfoam.org
    \\  /    A nd           | Version:  8
     \\/     M anipulation  |
\*---------------------------------------------------------------------------*/
FoamFile
{
    version     2.0;
    format      ascii;
    class       volScalarField;
    location    "0.1";
    object      C2H5;
}
// * * * * * * * * * * * * * * * * * * * * * * * * * * * * * * * * * * * * * //

dimensions      [0 0 0 0 0 0 0];

internalField   nonuniform List<scalar> 
25
(
1.75667e-10
1.24938e-09
7.38914e-09
2.81669e-08
1.93654e-07
1.96355e-10
1.32504e-09
7.43408e-09
2.57512e-08
1.6545e-07
2.24092e-10
1.42091e-09
7.61725e-09
2.39524e-08
1.42237e-07
2.44422e-10
1.49932e-09
7.83673e-09
2.31297e-08
1.30363e-07
2.58411e-10
1.55214e-09
7.9464e-09
2.27798e-08
1.25806e-07
)
;

boundaryField
{
    fuel
    {
        type            fixedValue;
        value           uniform 0;
    }
    air
    {
        type            fixedValue;
        value           nonuniform List<scalar> 0();
    }
    outlet
    {
        type            inletOutlet;
        inletValue      uniform 0;
        value           nonuniform List<scalar> 5(1.75667e-10 1.24938e-09 7.38914e-09 2.81669e-08 1.93654e-07);
    }
    frontAndBack
    {
        type            empty;
    }
    procBoundary0to1
    {
        type            processor;
        value           nonuniform List<scalar> 5(9.76476e-07 7.77641e-07 6.26565e-07 5.54766e-07 5.3062e-07);
    }
    procBoundary0to2
    {
        type            processor;
        value           nonuniform List<scalar> 5(2.58381e-10 1.55063e-09 7.92818e-09 2.27718e-08 1.25218e-07);
    }
}


// ************************************************************************* //
