/*--------------------------------*- C++ -*----------------------------------*\
  =========                 |
  \\      /  F ield         | OpenFOAM: The Open Source CFD Toolbox
   \\    /   O peration     | Website:  https://openfoam.org
    \\  /    A nd           | Version:  8
     \\/     M anipulation  |
\*---------------------------------------------------------------------------*/
FoamFile
{
    version     2.0;
    format      ascii;
    class       volScalarField;
    location    "0.1";
    object      C2H6;
}
// * * * * * * * * * * * * * * * * * * * * * * * * * * * * * * * * * * * * * //

dimensions      [0 0 0 0 0 0 0];

internalField   nonuniform List<scalar> 
25
(
5.84928e-06
4.59154e-05
0.000203206
0.000484838
0.000540935
6.03051e-06
4.63892e-05
0.000200453
0.000469223
0.000516651
6.25083e-06
4.69679e-05
0.000198285
0.000455792
0.000494022
6.35503e-06
4.70061e-05
0.000195892
0.000446674
0.000480426
6.43914e-06
4.72565e-05
0.000194888
0.000441601
0.000474262
)
;

boundaryField
{
    fuel
    {
        type            fixedValue;
        value           uniform 0;
    }
    air
    {
        type            fixedValue;
        value           nonuniform List<scalar> 0();
    }
    outlet
    {
        type            inletOutlet;
        inletValue      uniform 0;
        value           nonuniform List<scalar> 5(5.84928e-06 4.59154e-05 0.000203206 0.000484838 0.000540935);
    }
    frontAndBack
    {
        type            empty;
    }
    procBoundary0to1
    {
        type            processor;
        value           nonuniform List<scalar> 5(0.000141043 0.00011529 9.75019e-05 8.85321e-05 8.57678e-05);
    }
    procBoundary0to2
    {
        type            processor;
        value           nonuniform List<scalar> 5(6.43913e-06 4.72568e-05 0.000194885 0.000441481 0.000473885);
    }
}


// ************************************************************************* //
