/*--------------------------------*- C++ -*----------------------------------*\
  =========                 |
  \\      /  F ield         | OpenFOAM: The Open Source CFD Toolbox
   \\    /   O peration     | Website:  https://openfoam.org
    \\  /    A nd           | Version:  8
     \\/     M anipulation  |
\*---------------------------------------------------------------------------*/
FoamFile
{
    version     2.0;
    format      ascii;
    class       volScalarField;
    location    "0.1";
    object      CH2OH;
}
// * * * * * * * * * * * * * * * * * * * * * * * * * * * * * * * * * * * * * //

dimensions      [0 0 0 0 0 0 0];

internalField   nonuniform List<scalar> 
25
(
5.81929e-15
4.39157e-13
2.22004e-11
5.8689e-10
5.73318e-09
5.68795e-15
4.27738e-13
2.14661e-11
5.64113e-10
5.72728e-09
5.67041e-15
4.24702e-13
2.11569e-11
5.52477e-10
5.65598e-09
5.61265e-15
4.20157e-13
2.08791e-11
5.43325e-10
5.53076e-09
5.62542e-15
4.20184e-13
2.07982e-11
5.39428e-10
5.49997e-09
)
;

boundaryField
{
    fuel
    {
        type            fixedValue;
        value           uniform 0;
    }
    air
    {
        type            fixedValue;
        value           nonuniform List<scalar> 0();
    }
    outlet
    {
        type            inletOutlet;
        inletValue      uniform 0;
        value           nonuniform List<scalar> 5(5.81929e-15 4.39157e-13 2.22004e-11 5.8689e-10 5.73318e-09);
    }
    frontAndBack
    {
        type            empty;
    }
    procBoundary0to1
    {
        type            processor;
        value           nonuniform List<scalar> 5(3.34629e-08 3.2973e-08 3.21204e-08 3.10036e-08 3.07599e-08);
    }
    procBoundary0to2
    {
        type            processor;
        value           nonuniform List<scalar> 5(5.69283e-15 4.25398e-13 2.10679e-11 5.46981e-10 5.59032e-09);
    }
}


// ************************************************************************* //
