/*--------------------------------*- C++ -*----------------------------------*\
  =========                 |
  \\      /  F ield         | OpenFOAM: The Open Source CFD Toolbox
   \\    /   O peration     | Website:  https://openfoam.org
    \\  /    A nd           | Version:  8
     \\/     M anipulation  |
\*---------------------------------------------------------------------------*/
FoamFile
{
    version     2.0;
    format      ascii;
    class       volScalarField;
    location    "0.1";
    object      CH3O;
}
// * * * * * * * * * * * * * * * * * * * * * * * * * * * * * * * * * * * * * //

dimensions      [0 0 0 0 0 0 0];

internalField   nonuniform List<scalar> 
25
(
1.59216e-09
1.74925e-08
4.84783e-08
5.47753e-09
2.17701e-09
1.67929e-09
1.78579e-08
4.68545e-08
5.47041e-09
1.94897e-09
1.7914e-09
1.83511e-08
4.55561e-08
5.33853e-09
1.77195e-09
1.85818e-09
1.86486e-08
4.51139e-08
5.28296e-09
1.69148e-09
1.90255e-09
1.88445e-08
4.43572e-08
5.23458e-09
1.65674e-09
)
;

boundaryField
{
    fuel
    {
        type            fixedValue;
        value           uniform 0;
    }
    air
    {
        type            fixedValue;
        value           nonuniform List<scalar> 0();
    }
    outlet
    {
        type            inletOutlet;
        inletValue      uniform 0;
        value           nonuniform List<scalar> 5(1.59216e-09 1.74925e-08 4.84783e-08 5.47753e-09 2.17701e-09);
    }
    frontAndBack
    {
        type            empty;
    }
    procBoundary0to1
    {
        type            processor;
        value           nonuniform List<scalar> 5(7.01044e-09 5.32854e-09 4.16406e-09 3.67289e-09 3.49591e-09);
    }
    procBoundary0to2
    {
        type            processor;
        value           nonuniform List<scalar> 5(1.90239e-09 1.88346e-08 4.42143e-08 5.22755e-09 1.65055e-09);
    }
}


// ************************************************************************* //
