/*--------------------------------*- C++ -*----------------------------------*\
  =========                 |
  \\      /  F ield         | OpenFOAM: The Open Source CFD Toolbox
   \\    /   O peration     | Website:  https://openfoam.org
    \\  /    A nd           | Version:  8
     \\/     M anipulation  |
\*---------------------------------------------------------------------------*/
FoamFile
{
    version     2.0;
    format      ascii;
    class       volScalarField;
    location    "0.1";
    object      CH4;
}
// * * * * * * * * * * * * * * * * * * * * * * * * * * * * * * * * * * * * * //

dimensions      [0 0 0 0 0 0 0];

internalField   nonuniform List<scalar> 
25
(
0.988882
0.931809
0.746826
0.391209
0.146718
0.98908
0.931931
0.747145
0.395656
0.145621
0.989241
0.931773
0.746452
0.396394
0.14429
0.989363
0.932089
0.746739
0.39653
0.143435
0.989388
0.931895
0.746377
0.397041
0.143221
)
;

boundaryField
{
    fuel
    {
        type            fixedValue;
        value           uniform 1;
    }
    air
    {
        type            fixedValue;
        value           nonuniform List<scalar> 0();
    }
    outlet
    {
        type            inletOutlet;
        inletValue      uniform 0;
        value           nonuniform List<scalar> 5(0.988882 0.931809 0.746826 0.391209 0.146718);
    }
    frontAndBack
    {
        type            empty;
    }
    procBoundary0to1
    {
        type            processor;
        value           nonuniform List<scalar> 5(0.0259678 0.0243105 0.0230614 0.0223859 0.0222046);
    }
    procBoundary0to2
    {
        type            processor;
        value           nonuniform List<scalar> 5(0.989388 0.931895 0.746378 0.397049 0.143232);
    }
}


// ************************************************************************* //
