/*--------------------------------*- C++ -*----------------------------------*\
  =========                 |
  \\      /  F ield         | OpenFOAM: The Open Source CFD Toolbox
   \\    /   O peration     | Website:  https://openfoam.org
    \\  /    A nd           | Version:  8
     \\/     M anipulation  |
\*---------------------------------------------------------------------------*/
FoamFile
{
    version     2.0;
    format      ascii;
    class       volScalarField;
    location    "0.1";
    object      H;
}
// * * * * * * * * * * * * * * * * * * * * * * * * * * * * * * * * * * * * * //

dimensions      [0 0 0 0 0 0 0];

internalField   nonuniform List<scalar> 
25
(
5.15578e-13
3.86119e-11
1.93225e-09
4.99686e-08
4.75899e-07
5.35192e-13
4.00403e-11
1.99456e-09
5.15355e-08
5.14521e-07
5.65128e-13
4.21748e-11
2.09166e-09
5.39972e-08
5.48118e-07
5.78275e-13
4.31665e-11
2.13753e-09
5.50744e-08
5.56898e-07
5.90294e-13
4.39713e-11
2.16906e-09
5.57252e-08
5.64566e-07
)
;

boundaryField
{
    fuel
    {
        type            fixedValue;
        value           uniform 0;
    }
    air
    {
        type            fixedValue;
        value           nonuniform List<scalar> 0();
    }
    outlet
    {
        type            inletOutlet;
        inletValue      uniform 0;
        value           nonuniform List<scalar> 5(5.15578e-13 3.86119e-11 1.93225e-09 4.99686e-08 4.75899e-07);
    }
    frontAndBack
    {
        type            empty;
    }
    procBoundary0to1
    {
        type            processor;
        value           nonuniform List<scalar> 5(2.67849e-06 2.89363e-06 3.07514e-06 3.08685e-06 3.12093e-06);
    }
    procBoundary0to2
    {
        type            processor;
        value           nonuniform List<scalar> 5(6.0327e-13 4.49756e-11 2.22097e-09 5.71776e-08 5.81795e-07);
    }
}


// ************************************************************************* //
