/*--------------------------------*- C++ -*----------------------------------*\
  =========                 |
  \\      /  F ield         | OpenFOAM: The Open Source CFD Toolbox
   \\    /   O peration     | Website:  https://openfoam.org
    \\  /    A nd           | Version:  8
     \\/     M anipulation  |
\*---------------------------------------------------------------------------*/
FoamFile
{
    version     2.0;
    format      ascii;
    class       volScalarField;
    location    "0.1";
    object      H2;
}
// * * * * * * * * * * * * * * * * * * * * * * * * * * * * * * * * * * * * * //

dimensions      [0 0 0 0 0 0 0];

internalField   nonuniform List<scalar> 
25
(
1.27152e-05
0.000111885
0.000625743
0.00208224
0.0034141
1.37286e-05
0.000117984
0.000640444
0.00207762
0.00341288
1.50211e-05
0.000125011
0.000659996
0.00209345
0.00341547
1.5902e-05
0.000129891
0.000673936
0.00210981
0.0034202
1.6554e-05
0.000133757
0.00068408
0.00211816
0.00342431
)
;

boundaryField
{
    fuel
    {
        type            fixedValue;
        value           uniform 0;
    }
    air
    {
        type            fixedValue;
        value           nonuniform List<scalar> 0();
    }
    outlet
    {
        type            inletOutlet;
        inletValue      uniform 0;
        value           nonuniform List<scalar> 5(1.27152e-05 0.000111885 0.000625743 0.00208224 0.0034141);
    }
    frontAndBack
    {
        type            empty;
    }
    procBoundary0to1
    {
        type            processor;
        value           nonuniform List<scalar> 5(0.00422694 0.00418058 0.00414233 0.00412594 0.0041223);
    }
    procBoundary0to2
    {
        type            processor;
        value           nonuniform List<scalar> 5(1.6554e-05 0.000133756 0.000684067 0.0021181 0.00342362);
    }
}


// ************************************************************************* //
