/*--------------------------------*- C++ -*----------------------------------*\
  =========                 |
  \\      /  F ield         | OpenFOAM: The Open Source CFD Toolbox
   \\    /   O peration     | Website:  https://openfoam.org
    \\  /    A nd           | Version:  8
     \\/     M anipulation  |
\*---------------------------------------------------------------------------*/
FoamFile
{
    version     2.0;
    format      ascii;
    class       volScalarField;
    location    "0.1";
    object      H2O;
}
// * * * * * * * * * * * * * * * * * * * * * * * * * * * * * * * * * * * * * //

dimensions      [0 0 0 0 0 0 0];

internalField   nonuniform List<scalar> 
25
(
0.000171107
0.00198681
0.0133655
0.0473806
0.0788954
0.000179051
0.00205015
0.0135135
0.0471186
0.0791654
0.000189408
0.00212738
0.0137573
0.047308
0.0795052
0.000195904
0.00217438
0.0139127
0.0475359
0.0797636
0.000201183
0.0022161
0.0140355
0.0476219
0.0798877
)
;

boundaryField
{
    fuel
    {
        type            fixedValue;
        value           uniform 0;
    }
    air
    {
        type            fixedValue;
        value           nonuniform List<scalar> 0();
    }
    outlet
    {
        type            inletOutlet;
        inletValue      uniform 0;
        value           nonuniform List<scalar> 5(0.000171107 0.00198681 0.0133655 0.0473806 0.0788954);
    }
    frontAndBack
    {
        type            empty;
    }
    procBoundary0to1
    {
        type            processor;
        value           nonuniform List<scalar> 5(0.0981805 0.098232 0.0983342 0.0984427 0.0985039);
    }
    procBoundary0to2
    {
        type            processor;
        value           nonuniform List<scalar> 5(0.000201179 0.00221607 0.0140353 0.0476209 0.0798828);
    }
}


// ************************************************************************* //
