/*--------------------------------*- C++ -*----------------------------------*\
  =========                 |
  \\      /  F ield         | OpenFOAM: The Open Source CFD Toolbox
   \\    /   O peration     | Website:  https://openfoam.org
    \\  /    A nd           | Version:  8
     \\/     M anipulation  |
\*---------------------------------------------------------------------------*/
FoamFile
{
    version     2.0;
    format      ascii;
    class       volScalarField;
    location    "0.1";
    object      HCNN;
}
// * * * * * * * * * * * * * * * * * * * * * * * * * * * * * * * * * * * * * //

dimensions      [0 0 0 0 0 0 0];

internalField   nonuniform List<scalar> 
25
(
1.80961e-18
1.36347e-16
6.86723e-15
1.8046e-13
1.74754e-12
1.82161e-18
1.36917e-16
6.85976e-15
1.79832e-13
1.82114e-12
1.85811e-18
1.39102e-16
6.92219e-15
1.80458e-13
1.8432e-12
1.8765e-18
1.40515e-16
6.98549e-15
1.81913e-13
1.85473e-12
1.8797e-18
1.40451e-16
6.95522e-15
1.80544e-13
1.84412e-12
)
;

boundaryField
{
    fuel
    {
        type            fixedValue;
        value           uniform 0;
    }
    air
    {
        type            fixedValue;
        value           nonuniform List<scalar> 0();
    }
    outlet
    {
        type            inletOutlet;
        inletValue      uniform 0;
        value           nonuniform List<scalar> 5(1.80961e-18 1.36347e-16 6.86723e-15 1.8046e-13 1.74754e-12);
    }
    frontAndBack
    {
        type            empty;
    }
    procBoundary0to1
    {
        type            processor;
        value           nonuniform List<scalar> 5(1.00803e-11 1.04669e-11 1.0437e-11 1.04262e-11 1.03468e-11);
    }
    procBoundary0to2
    {
        type            processor;
        value           nonuniform List<scalar> 5(1.85547e-18 1.38584e-16 6.85891e-15 1.7786e-13 1.81289e-12);
    }
}


// ************************************************************************* //
