/*--------------------------------*- C++ -*----------------------------------*\
  =========                 |
  \\      /  F ield         | OpenFOAM: The Open Source CFD Toolbox
   \\    /   O peration     | Website:  https://openfoam.org
    \\  /    A nd           | Version:  8
     \\/     M anipulation  |
\*---------------------------------------------------------------------------*/
FoamFile
{
    version     2.0;
    format      ascii;
    class       volScalarField;
    location    "0.1";
    object      N;
}
// * * * * * * * * * * * * * * * * * * * * * * * * * * * * * * * * * * * * * //

dimensions      [0 0 0 0 0 0 0];

internalField   nonuniform List<scalar> 
25
(
3.17611e-16
4.69163e-15
1.0293e-13
2.42065e-12
2.25633e-11
3.51088e-16
5.23441e-15
1.1634e-13
2.76167e-12
2.73819e-11
3.93261e-16
5.86586e-15
1.31302e-13
3.1424e-12
3.20372e-11
4.21142e-16
6.2716e-15
1.38857e-13
3.3134e-12
3.36669e-11
4.3548e-16
6.47299e-15
1.43495e-13
3.41659e-12
3.47734e-11
)
;

boundaryField
{
    fuel
    {
        type            fixedValue;
        value           uniform 0;
    }
    air
    {
        type            fixedValue;
        value           nonuniform List<scalar> 0();
    }
    outlet
    {
        type            inletOutlet;
        inletValue      uniform 0;
        value           nonuniform List<scalar> 5(3.17611e-16 4.69163e-15 1.0293e-13 2.42065e-12 2.25633e-11);
    }
    frontAndBack
    {
        type            empty;
    }
    procBoundary0to1
    {
        type            processor;
        value           nonuniform List<scalar> 5(1.2341e-10 1.53101e-10 1.81634e-10 1.88413e-10 1.93821e-10);
    }
    procBoundary0to2
    {
        type            processor;
        value           nonuniform List<scalar> 5(4.3547e-16 6.56547e-15 1.49677e-13 3.58865e-12 3.68074e-11);
    }
}


// ************************************************************************* //
