/*--------------------------------*- C++ -*----------------------------------*\
  =========                 |
  \\      /  F ield         | OpenFOAM: The Open Source CFD Toolbox
   \\    /   O peration     | Website:  https://openfoam.org
    \\  /    A nd           | Version:  8
     \\/     M anipulation  |
\*---------------------------------------------------------------------------*/
FoamFile
{
    version     2.0;
    format      ascii;
    class       volScalarField;
    location    "0.1";
    object      N2;
}
// * * * * * * * * * * * * * * * * * * * * * * * * * * * * * * * * * * * * * //

dimensions      [0 0 0 0 0 0 0];

internalField   nonuniform List<scalar> 
25
(
0.0105644
0.0622553
0.215893
0.482853
0.648813
0.0103453
0.0619797
0.215283
0.479209
0.64918
0.0101558
0.0619484
0.215442
0.478159
0.649669
0.010017
0.0615256
0.214845
0.477592
0.64992
0.00997857
0.0616178
0.214941
0.476958
0.649872
)
;

boundaryField
{
    fuel
    {
        type            fixedValue;
        value           uniform 0;
    }
    air
    {
        type            fixedValue;
        value           nonuniform List<scalar> 0();
    }
    outlet
    {
        type            inletOutlet;
        inletValue      uniform 1;
        value           nonuniform List<scalar> 5(0.0105644 0.0622553 0.215893 0.482853 0.648813);
    }
    frontAndBack
    {
        type            empty;
    }
    procBoundary0to1
    {
        type            processor;
        value           nonuniform List<scalar> 5(0.722888 0.723931 0.724647 0.724955 0.724973);
    }
    procBoundary0to2
    {
        type            processor;
        value           nonuniform List<scalar> 5(0.0099786 0.0616179 0.21494 0.476954 0.64987);
    }
}


// ************************************************************************* //
