/*--------------------------------*- C++ -*----------------------------------*\
  =========                 |
  \\      /  F ield         | OpenFOAM: The Open Source CFD Toolbox
   \\    /   O peration     | Website:  https://openfoam.org
    \\  /    A nd           | Version:  8
     \\/     M anipulation  |
\*---------------------------------------------------------------------------*/
FoamFile
{
    version     2.0;
    format      ascii;
    class       volScalarField;
    location    "0.1";
    object      NH;
}
// * * * * * * * * * * * * * * * * * * * * * * * * * * * * * * * * * * * * * //

dimensions      [0 0 0 0 0 0 0];

internalField   nonuniform List<scalar> 
25
(
5.17739e-15
7.96995e-14
1.94162e-12
1.7002e-11
1.0106e-10
5.53525e-15
8.46299e-14
2.03138e-12
1.74334e-11
1.12573e-10
6.02835e-15
9.10605e-14
2.15494e-12
1.79139e-11
1.20417e-10
6.38964e-15
9.56459e-14
2.23776e-12
1.80521e-11
1.21458e-10
6.6356e-15
9.87172e-14
2.2904e-12
1.80747e-11
1.21834e-10
)
;

boundaryField
{
    fuel
    {
        type            fixedValue;
        value           uniform 0;
    }
    air
    {
        type            fixedValue;
        value           nonuniform List<scalar> 0();
    }
    outlet
    {
        type            inletOutlet;
        inletValue      uniform 0;
        value           nonuniform List<scalar> 5(5.17739e-15 7.96995e-14 1.94162e-12 1.7002e-11 1.0106e-10);
    }
    frontAndBack
    {
        type            empty;
    }
    procBoundary0to1
    {
        type            processor;
        value           nonuniform List<scalar> 5(5.20908e-10 5.61033e-10 5.90313e-10 5.83347e-10 5.86231e-10);
    }
    procBoundary0to2
    {
        type            processor;
        value           nonuniform List<scalar> 5(6.63489e-15 9.88684e-14 2.30056e-12 1.8419e-11 1.2598e-10);
    }
}


// ************************************************************************* //
