/*--------------------------------*- C++ -*----------------------------------*\
  =========                 |
  \\      /  F ield         | OpenFOAM: The Open Source CFD Toolbox
   \\    /   O peration     | Website:  https://openfoam.org
    \\  /    A nd           | Version:  8
     \\/     M anipulation  |
\*---------------------------------------------------------------------------*/
FoamFile
{
    version     2.0;
    format      ascii;
    class       volScalarField;
    location    "0.1";
    object      NH2;
}
// * * * * * * * * * * * * * * * * * * * * * * * * * * * * * * * * * * * * * //

dimensions      [0 0 0 0 0 0 0];

internalField   nonuniform List<scalar> 
25
(
6.24472e-13
6.62671e-12
3.76231e-11
2.25816e-10
2.15649e-09
6.76653e-13
6.88445e-12
3.74691e-11
2.29873e-10
2.29763e-09
7.4149e-13
7.17354e-12
3.7579e-11
2.37074e-10
2.4053e-09
7.81768e-13
7.33816e-12
3.75646e-11
2.38814e-10
2.41083e-09
8.08464e-13
7.44071e-12
3.73412e-11
2.40061e-10
2.42715e-09
)
;

boundaryField
{
    fuel
    {
        type            fixedValue;
        value           uniform 0;
    }
    air
    {
        type            fixedValue;
        value           nonuniform List<scalar> 0();
    }
    outlet
    {
        type            inletOutlet;
        inletValue      uniform 0;
        value           nonuniform List<scalar> 5(6.24472e-13 6.62671e-12 3.76231e-11 2.25816e-10 2.15649e-09);
    }
    frontAndBack
    {
        type            empty;
    }
    procBoundary0to1
    {
        type            processor;
        value           nonuniform List<scalar> 5(1.21817e-08 1.29528e-08 1.35005e-08 1.33512e-08 1.33999e-08);
    }
    procBoundary0to2
    {
        type            processor;
        value           nonuniform List<scalar> 5(8.0829e-13 7.43928e-12 3.74907e-11 2.46341e-10 2.50168e-09);
    }
}


// ************************************************************************* //
