/*--------------------------------*- C++ -*----------------------------------*\
  =========                 |
  \\      /  F ield         | OpenFOAM: The Open Source CFD Toolbox
   \\    /   O peration     | Website:  https://openfoam.org
    \\  /    A nd           | Version:  8
     \\/     M anipulation  |
\*---------------------------------------------------------------------------*/
FoamFile
{
    version     2.0;
    format      ascii;
    class       volScalarField;
    location    "0.1";
    object      NNH;
}
// * * * * * * * * * * * * * * * * * * * * * * * * * * * * * * * * * * * * * //

dimensions      [0 0 0 0 0 0 0];

internalField   nonuniform List<scalar> 
25
(
1.99145e-17
1.49689e-15
7.49743e-14
1.95297e-12
1.86677e-11
2.09248e-17
1.57067e-15
7.83843e-14
2.04193e-12
2.04853e-11
2.23447e-17
1.67231e-15
8.31714e-14
2.16679e-12
2.21253e-11
2.30096e-17
1.72253e-15
8.55804e-14
2.2265e-12
2.26577e-11
2.35513e-17
1.75938e-15
8.71006e-14
2.25969e-12
2.30388e-11
)
;

boundaryField
{
    fuel
    {
        type            fixedValue;
        value           uniform 0;
    }
    air
    {
        type            fixedValue;
        value           nonuniform List<scalar> 0();
    }
    outlet
    {
        type            inletOutlet;
        inletValue      uniform 0;
        value           nonuniform List<scalar> 5(1.99145e-17 1.49689e-15 7.49743e-14 1.95297e-12 1.86677e-11);
    }
    frontAndBack
    {
        type            empty;
    }
    procBoundary0to1
    {
        type            processor;
        value           nonuniform List<scalar> 5(1.05383e-10 1.15775e-10 1.24936e-10 1.26487e-10 1.2825e-10);
    }
    procBoundary0to2
    {
        type            processor;
        value           nonuniform List<scalar> 5(2.40981e-17 1.80162e-15 8.92831e-14 2.32068e-12 2.37621e-11);
    }
}


// ************************************************************************* //
