/*--------------------------------*- C++ -*----------------------------------*\
  =========                 |
  \\      /  F ield         | OpenFOAM: The Open Source CFD Toolbox
   \\    /   O peration     | Website:  https://openfoam.org
    \\  /    A nd           | Version:  8
     \\/     M anipulation  |
\*---------------------------------------------------------------------------*/
FoamFile
{
    version     2.0;
    format      ascii;
    class       volScalarField;
    location    "0.1";
    object      T;
}
// * * * * * * * * * * * * * * * * * * * * * * * * * * * * * * * * * * * * * //

dimensions      [0 0 0 1 0 0 0];

internalField   nonuniform List<scalar> 
25
(
300.649
343.836
497.474
863.961
1280.65
300.831
344.774
498.553
859.07
1282.88
301.063
345.912
500.578
859.123
1286.02
301.185
346.423
501.49
859.841
1288.29
301.293
347.036
502.516
859.768
1289.07
)
;

boundaryField
{
    fuel
    {
        type            fixedValue;
        value           uniform 293;
    }
    air
    {
        type            fixedValue;
        value           nonuniform List<scalar> 0();
    }
    outlet
    {
        type            inletOutlet;
        inletValue      uniform 293;
        value           nonuniform List<scalar> 5(300.84 344.391 497.241 861.367 1278.03);
    }
    frontAndBack
    {
        type            empty;
    }
    procBoundary0to1
    {
        type            processor;
        value           nonuniform List<scalar> 5(1637.07 1641.3 1645.24 1647.82 1648.66);
    }
    procBoundary0to2
    {
        type            processor;
        value           nonuniform List<scalar> 5(301.293 347.036 502.516 859.762 1289.04);
    }
}


// ************************************************************************* //
