/*--------------------------------*- C++ -*----------------------------------*\
  =========                 |
  \\      /  F ield         | OpenFOAM: The Open Source CFD Toolbox
   \\    /   O peration     | Website:  https://openfoam.org
    \\  /    A nd           | Version:  8
     \\/     M anipulation  |
\*---------------------------------------------------------------------------*/
FoamFile
{
    version     2.0;
    format      ascii;
    class       volVectorField;
    location    "0.1";
    object      U;
}
// * * * * * * * * * * * * * * * * * * * * * * * * * * * * * * * * * * * * * //

dimensions      [0 1 -1 0 0 0 0];

internalField   nonuniform List<vector> 
25
(
(0.0996277 -0.0701688 0)
(0.0917006 -0.1902 0)
(0.0518175 -0.287496 0)
(-0.00846707 -0.35705 0)
(-0.0970713 -0.35074 0)
(0.100084 -0.052138 0)
(0.0927417 -0.126079 0)
(0.0550177 -0.189133 0)
(0.0023864 -0.241437 0)
(-0.0960218 -0.261779 0)
(0.0995588 -0.036948 0)
(0.0912924 -0.0972508 0)
(0.0548121 -0.147802 0)
(0.00467913 -0.184972 0)
(-0.0973593 -0.19591 0)
(0.100009 -0.0225606 0)
(0.0924894 -0.055906 0)
(0.0564253 -0.0836561 0)
(0.00535148 -0.107513 0)
(-0.0998722 -0.117017 0)
(0.10073 -0.00752882 0)
(0.0903868 -0.0194772 0)
(0.0572683 -0.0285736 0)
(0.00636225 -0.0364055 0)
(-0.100085 -0.0392623 0)
)
;

boundaryField
{
    fuel
    {
        type            fixedValue;
        value           uniform (0.1 0 0);
    }
    air
    {
        type            fixedValue;
        value           nonuniform List<vector> 0();
    }
    outlet
    {
        type            pressureInletOutletVelocity;
        value           nonuniform List<vector> 5((0.0996277 -0.0701688 0) (0.0917006 -0.1902 0) (0.0518175 -0.287496 0) (-0.00846707 -0.35705 0) (-0.0970713 -0.35074 0));
    }
    frontAndBack
    {
        type            empty;
    }
    procBoundary0to1
    {
        type            processor;
        value           nonuniform List<vector> 5((-0.159923 -0.334933 0) (-0.176179 -0.256135 0) (-0.18454 -0.190387 0) (-0.188418 -0.114045 0) (-0.189414 -0.0380227 0));
    }
    procBoundary0to2
    {
        type            processor;
        value           nonuniform List<vector> 5((0.100731 0.00753137 0) (0.0903886 0.0194852 0) (0.0572714 0.0285881 0) (0.00637419 0.0364297 -6.37181e-29) (-0.100056 0.0392948 0));
    }
}


// ************************************************************************* //
