/*--------------------------------*- C++ -*----------------------------------*\
  =========                 |
  \\      /  F ield         | OpenFOAM: The Open Source CFD Toolbox
   \\    /   O peration     | Website:  https://openfoam.org
    \\  /    A nd           | Version:  8
     \\/     M anipulation  |
\*---------------------------------------------------------------------------*/
FoamFile
{
    version     2.0;
    format      ascii;
    class       volScalarField;
    location    "0.15";
    object      C2H4;
}
// * * * * * * * * * * * * * * * * * * * * * * * * * * * * * * * * * * * * * //

dimensions      [0 0 0 0 0 0 0];

internalField   nonuniform List<scalar> 
25
(
0.000143887
1.51408e-05
5.90154e-06
1.69624e-06
2.66078e-07
0.000150887
1.60031e-05
6.20774e-06
1.7786e-06
2.75399e-07
0.000178162
1.88458e-05
6.9434e-06
1.91151e-06
2.90786e-07
0.000221612
2.35743e-05
8.15394e-06
2.09778e-06
3.11458e-07
0.00028877
3.02426e-05
9.69231e-06
2.34106e-06
3.35812e-07
)
;

boundaryField
{
    fuel
    {
        type            fixedValue;
        value           nonuniform List<scalar> 0();
    }
    air
    {
        type            fixedValue;
        value           uniform 0;
    }
    outlet
    {
        type            inletOutlet;
        inletValue      uniform 0;
        value           nonuniform List<scalar> 5(0.00028877 3.02426e-05 9.69231e-06 2.34106e-06 3.35812e-07);
    }
    frontAndBack
    {
        type            empty;
    }
    procBoundary3to1
    {
        type            processor;
        value           nonuniform List<scalar> 5(0.000144343 1.52052e-05 5.90803e-06 1.69719e-06 2.66115e-07);
    }
    procBoundary3to2
    {
        type            processor;
        value           nonuniform List<scalar> 5(0.000440815 0.000447461 0.000462897 0.000455693 0.00047246);
    }
}


// ************************************************************************* //
