/*--------------------------------*- C++ -*----------------------------------*\
  =========                 |
  \\      /  F ield         | OpenFOAM: The Open Source CFD Toolbox
   \\    /   O peration     | Website:  https://openfoam.org
    \\  /    A nd           | Version:  8
     \\/     M anipulation  |
\*---------------------------------------------------------------------------*/
FoamFile
{
    version     2.0;
    format      ascii;
    class       volScalarField;
    location    "0.15";
    object      C2H6;
}
// * * * * * * * * * * * * * * * * * * * * * * * * * * * * * * * * * * * * * //

dimensions      [0 0 0 0 0 0 0];

internalField   nonuniform List<scalar> 
25
(
5.1164e-05
5.40538e-06
2.27941e-06
4.9334e-07
6.56683e-08
5.22391e-05
5.55242e-06
2.36104e-06
5.14103e-07
6.85994e-08
5.59681e-05
5.98484e-06
2.4869e-06
5.44106e-07
7.32969e-08
6.17807e-05
6.696e-06
2.71146e-06
5.84895e-07
7.9217e-08
7.03657e-05
7.66296e-06
3.0416e-06
6.39652e-07
8.56586e-08
)
;

boundaryField
{
    fuel
    {
        type            fixedValue;
        value           nonuniform List<scalar> 0();
    }
    air
    {
        type            fixedValue;
        value           uniform 0;
    }
    outlet
    {
        type            inletOutlet;
        inletValue      uniform 0;
        value           nonuniform List<scalar> 5(7.03657e-05 7.66296e-06 3.0416e-06 6.39652e-07 8.56586e-08);
    }
    frontAndBack
    {
        type            empty;
    }
    procBoundary3to1
    {
        type            processor;
        value           nonuniform List<scalar> 5(5.11999e-05 5.41082e-06 2.2797e-06 4.934e-07 6.5668e-08);
    }
    procBoundary3to2
    {
        type            processor;
        value           nonuniform List<scalar> 5(0.000386492 0.000390132 0.000399069 0.000411209 0.000421528);
    }
}


// ************************************************************************* //
