/*--------------------------------*- C++ -*----------------------------------*\
  =========                 |
  \\      /  F ield         | OpenFOAM: The Open Source CFD Toolbox
   \\    /   O peration     | Website:  https://openfoam.org
    \\  /    A nd           | Version:  8
     \\/     M anipulation  |
\*---------------------------------------------------------------------------*/
FoamFile
{
    version     2.0;
    format      ascii;
    class       volScalarField;
    location    "0.15";
    object      C3H7;
}
// * * * * * * * * * * * * * * * * * * * * * * * * * * * * * * * * * * * * * //

dimensions      [0 0 0 0 0 0 0];

internalField   nonuniform List<scalar> 
25
(
3.85596e-11
3.86414e-12
5.65565e-13
1.26121e-12
1.39973e-13
4.1274e-11
4.26768e-12
1.04483e-12
1.30414e-12
1.46873e-13
5.56365e-11
5.56162e-12
6.62211e-13
1.40124e-12
1.58764e-13
7.59368e-11
7.63822e-12
7.15398e-13
1.53661e-12
1.76741e-13
1.0937e-10
1.07539e-11
8.80825e-13
1.73119e-12
1.98292e-13
)
;

boundaryField
{
    fuel
    {
        type            fixedValue;
        value           nonuniform List<scalar> 0();
    }
    air
    {
        type            fixedValue;
        value           uniform 0;
    }
    outlet
    {
        type            inletOutlet;
        inletValue      uniform 0;
        value           nonuniform List<scalar> 5(1.0937e-10 1.07539e-11 8.80825e-13 1.73119e-12 1.98292e-13);
    }
    frontAndBack
    {
        type            empty;
    }
    procBoundary3to1
    {
        type            processor;
        value           nonuniform List<scalar> 5(3.88956e-11 3.91125e-12 5.68892e-13 1.26622e-12 1.40206e-13);
    }
    procBoundary3to2
    {
        type            processor;
        value           nonuniform List<scalar> 5(6.68661e-11 6.70829e-11 6.94006e-11 9.59225e-11 1.03816e-10);
    }
}


// ************************************************************************* //
