/*--------------------------------*- C++ -*----------------------------------*\
  =========                 |
  \\      /  F ield         | OpenFOAM: The Open Source CFD Toolbox
   \\    /   O peration     | Website:  https://openfoam.org
    \\  /    A nd           | Version:  8
     \\/     M anipulation  |
\*---------------------------------------------------------------------------*/
FoamFile
{
    version     2.0;
    format      ascii;
    class       volScalarField;
    location    "0.15";
    object      CH;
}
// * * * * * * * * * * * * * * * * * * * * * * * * * * * * * * * * * * * * * //

dimensions      [0 0 0 0 0 0 0];

internalField   nonuniform List<scalar> 
25
(
1.55462e-09
1.50733e-10
6.04306e-12
8.40597e-14
6.98089e-16
1.54053e-09
1.50617e-10
6.10121e-12
8.56935e-14
7.13469e-16
1.64222e-09
1.59428e-10
6.56746e-12
9.32314e-14
7.77307e-16
1.46561e-09
1.49726e-10
6.44175e-12
9.33213e-14
7.82275e-16
1.41257e-09
1.47981e-10
6.59698e-12
9.75757e-14
7.99764e-16
)
;

boundaryField
{
    fuel
    {
        type            fixedValue;
        value           nonuniform List<scalar> 0();
    }
    air
    {
        type            fixedValue;
        value           uniform 0;
    }
    outlet
    {
        type            inletOutlet;
        inletValue      uniform 0;
        value           nonuniform List<scalar> 5(1.41257e-09 1.47981e-10 6.59698e-12 9.75757e-14 7.99764e-16);
    }
    frontAndBack
    {
        type            empty;
    }
    procBoundary3to1
    {
        type            processor;
        value           nonuniform List<scalar> 5(1.56546e-09 1.52279e-10 6.11033e-12 8.50196e-14 7.06195e-16);
    }
    procBoundary3to2
    {
        type            processor;
        value           nonuniform List<scalar> 5(2.79999e-10 2.78165e-10 2.88469e-10 2.6257e-10 2.48588e-10);
    }
}


// ************************************************************************* //
