/*--------------------------------*- C++ -*----------------------------------*\
  =========                 |
  \\      /  F ield         | OpenFOAM: The Open Source CFD Toolbox
   \\    /   O peration     | Website:  https://openfoam.org
    \\  /    A nd           | Version:  8
     \\/     M anipulation  |
\*---------------------------------------------------------------------------*/
FoamFile
{
    version     2.0;
    format      ascii;
    class       volScalarField;
    location    "0.15";
    object      CH2;
}
// * * * * * * * * * * * * * * * * * * * * * * * * * * * * * * * * * * * * * //

dimensions      [0 0 0 0 0 0 0];

internalField   nonuniform List<scalar> 
25
(
3.33793e-07
3.23839e-08
1.29856e-09
1.80952e-11
1.50657e-13
3.34026e-07
3.26782e-08
1.32389e-09
1.86244e-11
1.55459e-13
3.60133e-07
3.52384e-08
1.45408e-09
2.06793e-11
1.72904e-13
3.68683e-07
3.70462e-08
1.5791e-09
2.27985e-11
1.91227e-13
3.77978e-07
3.90075e-08
1.72351e-09
2.54041e-11
2.08367e-13
)
;

boundaryField
{
    fuel
    {
        type            fixedValue;
        value           nonuniform List<scalar> 0();
    }
    air
    {
        type            fixedValue;
        value           uniform 0;
    }
    outlet
    {
        type            inletOutlet;
        inletValue      uniform 0;
        value           nonuniform List<scalar> 5(3.77978e-07 3.90075e-08 1.72351e-09 2.54041e-11 2.08367e-13);
    }
    frontAndBack
    {
        type            empty;
    }
    procBoundary3to1
    {
        type            processor;
        value           nonuniform List<scalar> 5(3.35362e-07 3.26081e-08 1.30832e-09 1.82346e-11 1.51834e-13);
    }
    procBoundary3to2
    {
        type            processor;
        value           nonuniform List<scalar> 5(6.01562e-08 6.03395e-08 6.36986e-08 6.47292e-08 6.53495e-08);
    }
}


// ************************************************************************* //
