/*--------------------------------*- C++ -*----------------------------------*\
  =========                 |
  \\      /  F ield         | OpenFOAM: The Open Source CFD Toolbox
   \\    /   O peration     | Website:  https://openfoam.org
    \\  /    A nd           | Version:  8
     \\/     M anipulation  |
\*---------------------------------------------------------------------------*/
FoamFile
{
    version     2.0;
    format      ascii;
    class       volScalarField;
    location    "0.15";
    object      CH2CHO;
}
// * * * * * * * * * * * * * * * * * * * * * * * * * * * * * * * * * * * * * //

dimensions      [0 0 0 0 0 0 0];

internalField   nonuniform List<scalar> 
25
(
8.42414e-10
8.299e-11
6.91768e-12
7.90928e-13
1.68055e-14
8.92511e-10
8.87838e-11
4.01919e-12
7.58107e-13
1.69953e-14
1.18017e-09
1.17021e-10
9.54676e-12
8.86414e-13
1.92517e-14
1.6284e-09
1.62296e-10
1.34378e-11
1.03238e-12
2.23886e-14
2.21372e-09
2.19385e-10
1.92718e-11
1.24717e-12
2.66004e-14
)
;

boundaryField
{
    fuel
    {
        type            fixedValue;
        value           nonuniform List<scalar> 0();
    }
    air
    {
        type            fixedValue;
        value           uniform 0;
    }
    outlet
    {
        type            inletOutlet;
        inletValue      uniform 0;
        value           nonuniform List<scalar> 5(2.21372e-09 2.19385e-10 1.92718e-11 1.24717e-12 2.66004e-14);
    }
    frontAndBack
    {
        type            empty;
    }
    procBoundary3to1
    {
        type            processor;
        value           nonuniform List<scalar> 5(8.48481e-10 8.38647e-11 6.95689e-12 7.91832e-13 1.68146e-14);
    }
    procBoundary3to2
    {
        type            processor;
        value           nonuniform List<scalar> 5(1.18892e-09 1.20137e-09 1.31361e-09 2.23133e-09 2.4336e-09);
    }
}


// ************************************************************************* //
