/*--------------------------------*- C++ -*----------------------------------*\
  =========                 |
  \\      /  F ield         | OpenFOAM: The Open Source CFD Toolbox
   \\    /   O peration     | Website:  https://openfoam.org
    \\  /    A nd           | Version:  8
     \\/     M anipulation  |
\*---------------------------------------------------------------------------*/
FoamFile
{
    version     2.0;
    format      ascii;
    class       volScalarField;
    location    "0.15";
    object      CH2CO;
}
// * * * * * * * * * * * * * * * * * * * * * * * * * * * * * * * * * * * * * //

dimensions      [0 0 0 0 0 0 0];

internalField   nonuniform List<scalar> 
25
(
5.65382e-05
5.80148e-06
1.65271e-06
3.80815e-07
5.28406e-08
5.84e-05
6.04579e-06
1.7297e-06
3.98832e-07
5.45715e-08
6.71272e-05
6.95041e-06
1.93256e-06
4.28512e-07
5.74332e-08
8.02439e-05
8.37403e-06
2.23727e-06
4.68068e-07
6.11679e-08
9.60927e-05
1.00626e-05
2.58683e-06
5.17645e-07
6.55451e-08
)
;

boundaryField
{
    fuel
    {
        type            fixedValue;
        value           nonuniform List<scalar> 0();
    }
    air
    {
        type            fixedValue;
        value           uniform 0;
    }
    outlet
    {
        type            inletOutlet;
        inletValue      uniform 0;
        value           nonuniform List<scalar> 5(9.60927e-05 1.00626e-05 2.58683e-06 5.17645e-07 6.55451e-08);
    }
    frontAndBack
    {
        type            empty;
    }
    procBoundary3to1
    {
        type            processor;
        value           nonuniform List<scalar> 5(5.67223e-05 5.82774e-06 1.65363e-06 3.80874e-07 5.28411e-08);
    }
    procBoundary3to2
    {
        type            processor;
        value           nonuniform List<scalar> 5(9.80038e-05 0.000100162 0.000105508 0.000109895 0.000116604);
    }
}


// ************************************************************************* //
