/*--------------------------------*- C++ -*----------------------------------*\
  =========                 |
  \\      /  F ield         | OpenFOAM: The Open Source CFD Toolbox
   \\    /   O peration     | Website:  https://openfoam.org
    \\  /    A nd           | Version:  8
     \\/     M anipulation  |
\*---------------------------------------------------------------------------*/
FoamFile
{
    version     2.0;
    format      ascii;
    class       volScalarField;
    location    "0.15";
    object      H2;
}
// * * * * * * * * * * * * * * * * * * * * * * * * * * * * * * * * * * * * * //

dimensions      [0 0 0 0 0 0 0];

internalField   nonuniform List<scalar> 
25
(
0.00416415
0.000427497
0.000116242
1.86059e-05
1.70589e-06
0.00418253
0.000431423
0.00011784
1.90656e-05
1.73721e-06
0.00422481
0.000441558
0.000122058
1.97307e-05
1.7877e-06
0.00430529
0.000460061
0.000127911
2.04974e-05
1.84704e-06
0.00441458
0.000483602
0.000135141
2.1624e-05
1.9248e-06
)
;

boundaryField
{
    fuel
    {
        type            fixedValue;
        value           nonuniform List<scalar> 0();
    }
    air
    {
        type            fixedValue;
        value           uniform 0;
    }
    outlet
    {
        type            inletOutlet;
        inletValue      uniform 0;
        value           nonuniform List<scalar> 5(0.00441458 0.000483602 0.000135141 2.1624e-05 1.9248e-06);
    }
    frontAndBack
    {
        type            empty;
    }
    procBoundary3to1
    {
        type            processor;
        value           nonuniform List<scalar> 5(0.00416375 0.000427442 0.000116244 1.86064e-05 1.70592e-06);
    }
    procBoundary3to2
    {
        type            processor;
        value           nonuniform List<scalar> 5(0.00365302 0.00366529 0.00369072 0.00373076 0.00377919);
    }
}


// ************************************************************************* //
