/*--------------------------------*- C++ -*----------------------------------*\
  =========                 |
  \\      /  F ield         | OpenFOAM: The Open Source CFD Toolbox
   \\    /   O peration     | Website:  https://openfoam.org
    \\  /    A nd           | Version:  8
     \\/     M anipulation  |
\*---------------------------------------------------------------------------*/
FoamFile
{
    version     2.0;
    format      ascii;
    class       volScalarField;
    location    "0.15";
    object      H2O;
}
// * * * * * * * * * * * * * * * * * * * * * * * * * * * * * * * * * * * * * //

dimensions      [0 0 0 0 0 0 0];

internalField   nonuniform List<scalar> 
25
(
0.107467
0.0664666
0.0184594
0.00288329
0.000262221
0.107579
0.0668548
0.0186901
0.00295339
0.00026748
0.107854
0.0680112
0.019281
0.00305244
0.000275815
0.108347
0.0699901
0.0200942
0.00316443
0.000285484
0.109001
0.0724768
0.0211043
0.00332998
0.000297756
)
;

boundaryField
{
    fuel
    {
        type            fixedValue;
        value           nonuniform List<scalar> 0();
    }
    air
    {
        type            fixedValue;
        value           uniform 0;
    }
    outlet
    {
        type            inletOutlet;
        inletValue      uniform 0;
        value           nonuniform List<scalar> 5(0.109001 0.0724768 0.0211043 0.00332998 0.000297756);
    }
    frontAndBack
    {
        type            empty;
    }
    procBoundary3to1
    {
        type            processor;
        value           nonuniform List<scalar> 5(0.107465 0.0664667 0.0184596 0.00288333 0.000262223);
    }
    procBoundary3to2
    {
        type            processor;
        value           nonuniform List<scalar> 5(0.0932351 0.0933134 0.0934532 0.0936635 0.0939664);
    }
}


// ************************************************************************* //
