/*--------------------------------*- C++ -*----------------------------------*\
  =========                 |
  \\      /  F ield         | OpenFOAM: The Open Source CFD Toolbox
   \\    /   O peration     | Website:  https://openfoam.org
    \\  /    A nd           | Version:  8
     \\/     M anipulation  |
\*---------------------------------------------------------------------------*/
FoamFile
{
    version     2.0;
    format      ascii;
    class       volScalarField;
    location    "0.15";
    object      HCO;
}
// * * * * * * * * * * * * * * * * * * * * * * * * * * * * * * * * * * * * * //

dimensions      [0 0 0 0 0 0 0];

internalField   nonuniform List<scalar> 
25
(
2.88594e-08
2.80195e-09
1.12994e-10
1.80588e-12
2.11428e-14
2.90429e-08
2.84557e-09
1.15611e-10
1.85623e-12
2.1866e-14
3.20388e-08
3.1298e-09
1.29681e-10
2.08112e-12
2.4449e-14
3.3005e-08
3.32495e-09
1.42509e-10
2.3118e-12
2.75834e-14
3.55835e-08
3.64167e-09
1.61173e-10
2.64802e-12
3.14902e-14
)
;

boundaryField
{
    fuel
    {
        type            fixedValue;
        value           nonuniform List<scalar> 0();
    }
    air
    {
        type            fixedValue;
        value           uniform 0;
    }
    outlet
    {
        type            inletOutlet;
        inletValue      uniform 0;
        value           nonuniform List<scalar> 5(3.55835e-08 3.64167e-09 1.61173e-10 2.64802e-12 3.14902e-14);
    }
    frontAndBack
    {
        type            empty;
    }
    procBoundary3to1
    {
        type            processor;
        value           nonuniform List<scalar> 5(2.90125e-08 2.82385e-09 1.13947e-10 1.81947e-12 2.12575e-14);
    }
    procBoundary3to2
    {
        type            processor;
        value           nonuniform List<scalar> 5(6.70695e-09 6.75645e-09 7.12718e-09 6.83378e-09 7.0821e-09);
    }
}


// ************************************************************************* //
