/*--------------------------------*- C++ -*----------------------------------*\
  =========                 |
  \\      /  F ield         | OpenFOAM: The Open Source CFD Toolbox
   \\    /   O peration     | Website:  https://openfoam.org
    \\  /    A nd           | Version:  8
     \\/     M anipulation  |
\*---------------------------------------------------------------------------*/
FoamFile
{
    version     2.0;
    format      ascii;
    class       volScalarField;
    location    "0.15";
    object      HNO;
}
// * * * * * * * * * * * * * * * * * * * * * * * * * * * * * * * * * * * * * //

dimensions      [0 0 0 0 0 0 0];

internalField   nonuniform List<scalar> 
25
(
5.63437e-10
1.04632e-10
3.2642e-11
1.08847e-10
1.14314e-11
5.50731e-10
1.08533e-10
3.67867e-11
1.09944e-10
1.14833e-11
5.48563e-10
1.06035e-10
2.76856e-11
1.11691e-10
1.16708e-11
5.27838e-10
1.13682e-10
2.49975e-11
1.15268e-10
1.2025e-11
4.89615e-10
1.14817e-10
2.40105e-11
1.22018e-10
1.25944e-11
)
;

boundaryField
{
    fuel
    {
        type            fixedValue;
        value           nonuniform List<scalar> 0();
    }
    air
    {
        type            fixedValue;
        value           uniform 0;
    }
    outlet
    {
        type            inletOutlet;
        inletValue      uniform 0;
        value           nonuniform List<scalar> 5(4.89615e-10 1.14817e-10 2.40105e-11 1.22018e-10 1.25944e-11);
    }
    frontAndBack
    {
        type            empty;
    }
    procBoundary3to1
    {
        type            processor;
        value           nonuniform List<scalar> 5(5.65109e-10 1.04868e-10 3.26485e-11 1.08851e-10 1.14323e-11);
    }
    procBoundary3to2
    {
        type            processor;
        value           nonuniform List<scalar> 5(1.02299e-10 1.00216e-10 9.92774e-11 1.01966e-10 9.643e-11);
    }
}


// ************************************************************************* //
