/*--------------------------------*- C++ -*----------------------------------*\
  =========                 |
  \\      /  F ield         | OpenFOAM: The Open Source CFD Toolbox
   \\    /   O peration     | Website:  https://openfoam.org
    \\  /    A nd           | Version:  8
     \\/     M anipulation  |
\*---------------------------------------------------------------------------*/
FoamFile
{
    version     2.0;
    format      ascii;
    class       volScalarField;
    location    "0.15";
    object      N;
}
// * * * * * * * * * * * * * * * * * * * * * * * * * * * * * * * * * * * * * //

dimensions      [0 0 0 0 0 0 0];

internalField   nonuniform List<scalar> 
25
(
3.07362e-10
3.14333e-11
1.25934e-12
1.80036e-14
3.01094e-16
2.95238e-10
3.08e-11
1.24711e-12
1.79122e-14
2.99529e-16
2.87049e-10
3.08372e-11
1.27731e-12
1.84693e-14
3.06645e-16
2.53338e-10
3.04842e-11
1.30625e-12
1.9074e-14
3.16513e-16
2.11116e-10
3.08458e-11
1.37037e-12
2.02685e-14
3.32143e-16
)
;

boundaryField
{
    fuel
    {
        type            fixedValue;
        value           nonuniform List<scalar> 0();
    }
    air
    {
        type            fixedValue;
        value           uniform 0;
    }
    outlet
    {
        type            inletOutlet;
        inletValue      uniform 0;
        value           nonuniform List<scalar> 5(2.11116e-10 3.08458e-11 1.37037e-12 2.02685e-14 3.32143e-16);
    }
    frontAndBack
    {
        type            empty;
    }
    procBoundary3to1
    {
        type            processor;
        value           nonuniform List<scalar> 5(3.08732e-10 3.16277e-11 1.2678e-12 1.81232e-14 3.01876e-16);
    }
    procBoundary3to2
    {
        type            processor;
        value           nonuniform List<scalar> 5(5.72555e-11 5.51269e-11 5.28126e-11 4.56542e-11 3.85881e-11);
    }
}


// ************************************************************************* //
