/*--------------------------------*- C++ -*----------------------------------*\
  =========                 |
  \\      /  F ield         | OpenFOAM: The Open Source CFD Toolbox
   \\    /   O peration     | Website:  https://openfoam.org
    \\  /    A nd           | Version:  8
     \\/     M anipulation  |
\*---------------------------------------------------------------------------*/
FoamFile
{
    version     2.0;
    format      ascii;
    class       volScalarField;
    location    "0.15";
    object      NH;
}
// * * * * * * * * * * * * * * * * * * * * * * * * * * * * * * * * * * * * * //

dimensions      [0 0 0 0 0 0 0];

internalField   nonuniform List<scalar> 
25
(
5.44747e-10
5.57872e-11
2.25791e-12
3.80159e-14
4.65009e-16
5.30694e-10
5.54328e-11
2.24518e-12
3.79693e-14
4.6802e-16
5.28971e-10
5.5517e-11
2.31555e-12
3.92872e-14
4.88389e-16
5.02668e-10
5.56739e-11
2.39255e-12
4.09203e-14
5.18394e-16
4.60916e-10
5.38898e-11
2.41807e-12
4.22248e-14
5.44901e-16
)
;

boundaryField
{
    fuel
    {
        type            fixedValue;
        value           nonuniform List<scalar> 0();
    }
    air
    {
        type            fixedValue;
        value           uniform 0;
    }
    outlet
    {
        type            inletOutlet;
        inletValue      uniform 0;
        value           nonuniform List<scalar> 5(4.60916e-10 5.38898e-11 2.41807e-12 4.22248e-14 5.44901e-16);
    }
    frontAndBack
    {
        type            empty;
    }
    procBoundary3to1
    {
        type            processor;
        value           nonuniform List<scalar> 5(5.46565e-10 5.60452e-11 2.26914e-12 3.81759e-14 4.66374e-16);
    }
    procBoundary3to2
    {
        type            processor;
        value           nonuniform List<scalar> 5(9.82461e-11 9.59665e-11 9.50172e-11 9.67637e-11 9.38408e-11);
    }
}


// ************************************************************************* //
