/*--------------------------------*- C++ -*----------------------------------*\
  =========                 |
  \\      /  F ield         | OpenFOAM: The Open Source CFD Toolbox
   \\    /   O peration     | Website:  https://openfoam.org
    \\  /    A nd           | Version:  8
     \\/     M anipulation  |
\*---------------------------------------------------------------------------*/
FoamFile
{
    version     2.0;
    format      ascii;
    class       volScalarField;
    location    "0.15";
    object      NNH;
}
// * * * * * * * * * * * * * * * * * * * * * * * * * * * * * * * * * * * * * //

dimensions      [0 0 0 0 0 0 0];

internalField   nonuniform List<scalar> 
25
(
1.70376e-10
2.40868e-11
9.66327e-13
1.34446e-14
1.1167e-16
1.66691e-10
2.4903e-11
1.00583e-12
1.41108e-14
1.17411e-16
1.63114e-10
2.50852e-11
1.04213e-12
1.48394e-14
1.23941e-16
1.56082e-10
2.81868e-11
1.19499e-12
1.71859e-14
1.4363e-16
1.42891e-10
2.97507e-11
1.31332e-12
1.9321e-14
1.57987e-16
)
;

boundaryField
{
    fuel
    {
        type            fixedValue;
        value           nonuniform List<scalar> 0();
    }
    air
    {
        type            fixedValue;
        value           uniform 0;
    }
    outlet
    {
        type            inletOutlet;
        inletValue      uniform 0;
        value           nonuniform List<scalar> 5(1.42891e-10 2.97507e-11 1.31332e-12 1.9321e-14 1.57987e-16);
    }
    frontAndBack
    {
        type            empty;
    }
    procBoundary3to1
    {
        type            processor;
        value           nonuniform List<scalar> 5(1.70673e-10 2.4129e-11 9.68167e-13 1.34709e-14 1.11892e-16);
    }
    procBoundary3to2
    {
        type            processor;
        value           nonuniform List<scalar> 5(3.08487e-11 3.01998e-11 2.93297e-11 2.77948e-11 2.55524e-11);
    }
}


// ************************************************************************* //
