/*--------------------------------*- C++ -*----------------------------------*\
  =========                 |
  \\      /  F ield         | OpenFOAM: The Open Source CFD Toolbox
   \\    /   O peration     | Website:  https://openfoam.org
    \\  /    A nd           | Version:  8
     \\/     M anipulation  |
\*---------------------------------------------------------------------------*/
FoamFile
{
    version     2.0;
    format      ascii;
    class       volScalarField;
    location    "0.15";
    object      O2;
}
// * * * * * * * * * * * * * * * * * * * * * * * * * * * * * * * * * * * * * //

dimensions      [0 0 0 0 0 0 0];

internalField   nonuniform List<scalar> 
25
(
0.0265525
0.102373
0.193977
0.224045
0.229405
0.0263248
0.10161
0.193526
0.223901
0.229394
0.0257253
0.099362
0.192378
0.223703
0.229376
0.0246063
0.0955046
0.190806
0.223483
0.229355
0.0230755
0.0906674
0.18886
0.223155
0.229329
)
;

boundaryField
{
    fuel
    {
        type            fixedValue;
        value           nonuniform List<scalar> 0();
    }
    air
    {
        type            fixedValue;
        value           uniform 0.23;
    }
    outlet
    {
        type            inletOutlet;
        inletValue      uniform 0;
        value           nonuniform List<scalar> 5(0.0230755 0.0906674 0.18886 0.223155 0.229329);
    }
    frontAndBack
    {
        type            empty;
    }
    procBoundary3to1
    {
        type            processor;
        value           nonuniform List<scalar> 5(0.0265561 0.102374 0.193976 0.224045 0.229405);
    }
    procBoundary3to2
    {
        type            processor;
        value           nonuniform List<scalar> 5(0.0227433 0.0225827 0.0222105 0.02162 0.0209569);
    }
}


// ************************************************************************* //
