/*--------------------------------*- C++ -*----------------------------------*\
  =========                 |
  \\      /  F ield         | OpenFOAM: The Open Source CFD Toolbox
   \\    /   O peration     | Website:  https://openfoam.org
    \\  /    A nd           | Version:  8
     \\/     M anipulation  |
\*---------------------------------------------------------------------------*/
FoamFile
{
    version     2.0;
    format      ascii;
    class       volScalarField;
    location    "0.15";
    object      T;
}
// * * * * * * * * * * * * * * * * * * * * * * * * * * * * * * * * * * * * * //

dimensions      [0 0 0 1 0 0 0];

internalField   nonuniform List<scalar> 
25
(
1686.67
1486.18
678.648
358.318
299.395
1685.83
1491.74
683.134
359.873
299.516
1683.74
1508.5
694.58
362.02
299.704
1680.46
1536.75
710.157
364.406
299.918
1677.03
1571.96
729.37
367.967
300.192
)
;

boundaryField
{
    fuel
    {
        type            fixedValue;
        value           nonuniform List<scalar> 0();
    }
    air
    {
        type            fixedValue;
        value           uniform 293;
    }
    outlet
    {
        type            inletOutlet;
        inletValue      uniform 293;
        value           nonuniform List<scalar> 5(1676.31 1572.81 730.007 368.233 300.245);
    }
    frontAndBack
    {
        type            empty;
    }
    procBoundary3to1
    {
        type            processor;
        value           nonuniform List<scalar> 5(1686.67 1486.19 678.653 358.319 299.395);
    }
    procBoundary3to2
    {
        type            processor;
        value           nonuniform List<scalar> 5(1323.4 1323.28 1322.45 1321.45 1321.65);
    }
}


// ************************************************************************* //
