/*--------------------------------*- C++ -*----------------------------------*\
  =========                 |
  \\      /  F ield         | OpenFOAM: The Open Source CFD Toolbox
   \\    /   O peration     | Website:  https://openfoam.org
    \\  /    A nd           | Version:  8
     \\/     M anipulation  |
\*---------------------------------------------------------------------------*/
FoamFile
{
    version     2.0;
    format      ascii;
    class       volVectorField;
    location    "0.15";
    object      U;
}
// * * * * * * * * * * * * * * * * * * * * * * * * * * * * * * * * * * * * * //

dimensions      [0 1 -1 0 0 0 0];

internalField   nonuniform List<vector> 
25
(
(-0.200613 0.0390551 0)
(-0.183953 0.0319255 3.3693e-29)
(-0.113378 0.0225451 0)
(-0.0993331 0.0139017 -2.11584e-29)
(-0.101942 0.00357154 0)
(-0.199114 0.116746 0)
(-0.184659 0.096631 0)
(-0.111842 0.0674217 0)
(-0.0975589 0.0354848 0)
(-0.103123 0.0139727 0)
(-0.194536 0.194703 0)
(-0.183588 0.165299 0)
(-0.108421 0.115303 0)
(-0.098117 0.0622036 0)
(-0.102856 0.0241999 0)
(-0.185346 0.261839 0)
(-0.177021 0.227243 0)
(-0.105666 0.150587 0)
(-0.100584 0.0840393 0)
(-0.102192 0.0352002 0)
(-0.168053 0.341245 0)
(-0.159539 0.3266 0)
(-0.102134 0.233724 0)
(-0.0992362 0.135539 0)
(-0.101214 0.050857 0)
)
;

boundaryField
{
    fuel
    {
        type            fixedValue;
        value           nonuniform List<vector> 0();
    }
    air
    {
        type            fixedValue;
        value           uniform (-0.1 0 0);
    }
    outlet
    {
        type            pressureInletOutletVelocity;
        value           nonuniform List<vector> 5((-0.168053 0.341245 0) (-0.159539 0.3266 0) (-0.102134 0.233724 0) (-0.0992362 0.135539 0) (-0.101214 0.050857 0));
    }
    frontAndBack
    {
        type            empty;
    }
    procBoundary3to1
    {
        type            processor;
        value           nonuniform List<vector> 5((-0.200613 -0.0391292 0) (-0.183964 -0.0319622 3.36931e-29) (-0.113382 -0.0225546 0) (-0.0993351 -0.0139046 -2.11585e-29) (-0.101943 -0.00357385 0));
    }
    procBoundary3to2
    {
        type            processor;
        value           nonuniform List<vector> 5((-0.112217 0.0407341 0) (-0.111934 0.121081 0) (-0.109696 0.202099 0) (-0.108314 0.269938 0) (-0.10958 0.357449 0));
    }
}


// ************************************************************************* //
