/*--------------------------------*- C++ -*----------------------------------*\
  =========                 |
  \\      /  F ield         | OpenFOAM: The Open Source CFD Toolbox
   \\    /   O peration     | Website:  https://openfoam.org
    \\  /    A nd           | Version:  8
     \\/     M anipulation  |
\*---------------------------------------------------------------------------*/
FoamFile
{
    version     2.0;
    format      ascii;
    class       volScalarField;
    location    "0.05";
    object      C2H3;
}
// * * * * * * * * * * * * * * * * * * * * * * * * * * * * * * * * * * * * * //

dimensions      [0 0 0 0 0 0 0];

internalField   nonuniform List<scalar> 
25
(
6.73623e-14
5.57489e-13
1.09171e-11
1.64529e-10
1.7535e-09
1.03484e-13
1.11269e-12
2.45101e-11
4.31275e-10
4.95173e-09
1.58356e-13
2.33736e-12
5.8813e-11
1.27145e-09
1.58637e-08
2.35793e-13
4.69221e-12
1.39905e-10
3.5134e-09
4.73032e-08
3.05117e-13
7.38894e-12
2.46608e-10
6.63775e-09
9.29747e-08
)
;

boundaryField
{
    fuel
    {
        type            fixedValue;
        value           uniform 0;
    }
    air
    {
        type            fixedValue;
        value           nonuniform List<scalar> 0();
    }
    outlet
    {
        type            inletOutlet;
        inletValue      uniform 0;
        value           nonuniform List<scalar> 5(6.73623e-14 5.57489e-13 1.09171e-11 1.64529e-10 1.7535e-09);
    }
    frontAndBack
    {
        type            empty;
    }
    procBoundary0to1
    {
        type            processor;
        value           nonuniform List<scalar> 5(9.72711e-09 2.80504e-08 1.0168e-07 3.55578e-07 7.34972e-07);
    }
    procBoundary0to2
    {
        type            processor;
        value           nonuniform List<scalar> 5(3.05113e-13 7.38883e-12 2.46595e-10 6.6373e-09 9.29705e-08);
    }
}


// ************************************************************************* //
