/*--------------------------------*- C++ -*----------------------------------*\
  =========                 |
  \\      /  F ield         | OpenFOAM: The Open Source CFD Toolbox
   \\    /   O peration     | Website:  https://openfoam.org
    \\  /    A nd           | Version:  8
     \\/     M anipulation  |
\*---------------------------------------------------------------------------*/
FoamFile
{
    version     2.0;
    format      ascii;
    class       volScalarField;
    location    "0.05";
    object      C2H4;
}
// * * * * * * * * * * * * * * * * * * * * * * * * * * * * * * * * * * * * * //

dimensions      [0 0 0 0 0 0 0];

internalField   nonuniform List<scalar> 
25
(
2.33281e-05
0.000108956
0.00027083
0.000529146
0.000799613
3.24451e-05
0.000136344
0.000333863
0.000650513
0.00107833
4.28612e-05
0.000167083
0.000393568
0.000803019
0.00144253
5.04179e-05
0.000192727
0.000449364
0.000951335
0.00184681
5.43416e-05
0.000206274
0.000479866
0.00102769
0.00204005
)
;

boundaryField
{
    fuel
    {
        type            fixedValue;
        value           uniform 0;
    }
    air
    {
        type            fixedValue;
        value           nonuniform List<scalar> 0();
    }
    outlet
    {
        type            inletOutlet;
        inletValue      uniform 0;
        value           nonuniform List<scalar> 5(2.33281e-05 0.000108956 0.00027083 0.000529146 0.000799613);
    }
    frontAndBack
    {
        type            empty;
    }
    procBoundary0to1
    {
        type            processor;
        value           nonuniform List<scalar> 5(0.000763792 0.00110424 0.00174705 0.00260744 0.00307942);
    }
    procBoundary0to2
    {
        type            processor;
        value           nonuniform List<scalar> 5(5.43413e-05 0.000206273 0.000479866 0.00102768 0.00204004);
    }
}


// ************************************************************************* //
