/*--------------------------------*- C++ -*----------------------------------*\
  =========                 |
  \\      /  F ield         | OpenFOAM: The Open Source CFD Toolbox
   \\    /   O peration     | Website:  https://openfoam.org
    \\  /    A nd           | Version:  8
     \\/     M anipulation  |
\*---------------------------------------------------------------------------*/
FoamFile
{
    version     2.0;
    format      ascii;
    class       volScalarField;
    location    "0.05";
    object      C2H6;
}
// * * * * * * * * * * * * * * * * * * * * * * * * * * * * * * * * * * * * * //

dimensions      [0 0 0 0 0 0 0];

internalField   nonuniform List<scalar> 
25
(
1.03782e-05
4.55531e-05
0.000118144
0.000272051
0.000534788
1.37517e-05
5.47826e-05
0.000138618
0.000313802
0.000637226
1.72257e-05
6.44697e-05
0.000156481
0.000358581
0.000738134
1.95157e-05
7.19565e-05
0.000171428
0.000391643
0.000803879
2.06323e-05
7.56737e-05
0.000178598
0.000401403
0.00079759
)
;

boundaryField
{
    fuel
    {
        type            fixedValue;
        value           uniform 0;
    }
    air
    {
        type            fixedValue;
        value           nonuniform List<scalar> 0();
    }
    outlet
    {
        type            inletOutlet;
        inletValue      uniform 0;
        value           nonuniform List<scalar> 5(1.03782e-05 4.55531e-05 0.000118144 0.000272051 0.000534788);
    }
    frontAndBack
    {
        type            empty;
    }
    procBoundary0to1
    {
        type            processor;
        value           nonuniform List<scalar> 5(0.000699904 0.0008206 0.000984507 0.00106599 0.00100578);
    }
    procBoundary0to2
    {
        type            processor;
        value           nonuniform List<scalar> 5(2.06322e-05 7.56739e-05 0.000178599 0.000401402 0.000797585);
    }
}


// ************************************************************************* //
