/*--------------------------------*- C++ -*----------------------------------*\
  =========                 |
  \\      /  F ield         | OpenFOAM: The Open Source CFD Toolbox
   \\    /   O peration     | Website:  https://openfoam.org
    \\  /    A nd           | Version:  8
     \\/     M anipulation  |
\*---------------------------------------------------------------------------*/
FoamFile
{
    version     2.0;
    format      ascii;
    class       volScalarField;
    location    "0.05";
    object      CH2O;
}
// * * * * * * * * * * * * * * * * * * * * * * * * * * * * * * * * * * * * * //

dimensions      [0 0 0 0 0 0 0];

internalField   nonuniform List<scalar> 
25
(
6.62221e-08
8.90096e-07
7.32347e-06
3.8904e-05
0.000129774
7.68383e-08
9.87853e-07
8.04314e-06
4.30905e-05
0.00014659
8.58098e-08
1.0541e-06
8.35194e-06
4.52884e-05
0.000154215
8.91198e-08
1.05384e-06
8.06001e-06
4.27392e-05
0.00013956
9.08579e-08
1.03801e-06
7.68386e-06
3.97835e-05
0.000127407
)
;

boundaryField
{
    fuel
    {
        type            fixedValue;
        value           uniform 0;
    }
    air
    {
        type            fixedValue;
        value           nonuniform List<scalar> 0();
    }
    outlet
    {
        type            inletOutlet;
        inletValue      uniform 0;
        value           nonuniform List<scalar> 5(6.62221e-08 8.90096e-07 7.32347e-06 3.8904e-05 0.000129774);
    }
    frontAndBack
    {
        type            empty;
    }
    procBoundary0to1
    {
        type            processor;
        value           nonuniform List<scalar> 5(0.000251363 0.000293988 0.000333071 0.000316893 0.000266578);
    }
    procBoundary0to2
    {
        type            processor;
        value           nonuniform List<scalar> 5(9.08543e-08 1.03798e-06 7.68374e-06 3.97833e-05 0.000127408);
    }
}


// ************************************************************************* //
