/*--------------------------------*- C++ -*----------------------------------*\
  =========                 |
  \\      /  F ield         | OpenFOAM: The Open Source CFD Toolbox
   \\    /   O peration     | Website:  https://openfoam.org
    \\  /    A nd           | Version:  8
     \\/     M anipulation  |
\*---------------------------------------------------------------------------*/
FoamFile
{
    version     2.0;
    format      ascii;
    class       volScalarField;
    location    "0.05";
    object      CH2OH;
}
// * * * * * * * * * * * * * * * * * * * * * * * * * * * * * * * * * * * * * //

dimensions      [0 0 0 0 0 0 0];

internalField   nonuniform List<scalar> 
25
(
7.10862e-17
2.51687e-15
1.06176e-13
2.68782e-12
3.73836e-11
1.42897e-16
6.97733e-15
3.08716e-13
7.97756e-12
1.07285e-10
3.2343e-16
1.9275e-14
8.7978e-13
2.44708e-11
3.36238e-10
7.13119e-16
4.693e-14
2.21514e-12
6.52156e-11
9.27343e-10
1.15686e-15
7.90973e-14
3.77692e-12
1.13174e-10
1.62704e-09
)
;

boundaryField
{
    fuel
    {
        type            fixedValue;
        value           uniform 0;
    }
    air
    {
        type            fixedValue;
        value           nonuniform List<scalar> 0();
    }
    outlet
    {
        type            inletOutlet;
        inletValue      uniform 0;
        value           nonuniform List<scalar> 5(7.10862e-17 2.51687e-15 1.06176e-13 2.68782e-12 3.73836e-11);
    }
    frontAndBack
    {
        type            empty;
    }
    procBoundary0to1
    {
        type            processor;
        value           nonuniform List<scalar> 5(2.60456e-10 7.12282e-10 2.38087e-09 7.31533e-09 1.3248e-08);
    }
    procBoundary0to2
    {
        type            processor;
        value           nonuniform List<scalar> 5(1.15679e-15 7.90909e-14 3.77661e-12 1.13164e-10 1.62693e-09);
    }
}


// ************************************************************************* //
