/*--------------------------------*- C++ -*----------------------------------*\
  =========                 |
  \\      /  F ield         | OpenFOAM: The Open Source CFD Toolbox
   \\    /   O peration     | Website:  https://openfoam.org
    \\  /    A nd           | Version:  8
     \\/     M anipulation  |
\*---------------------------------------------------------------------------*/
FoamFile
{
    version     2.0;
    format      ascii;
    class       volScalarField;
    location    "0.05";
    object      CH3CHO;
}
// * * * * * * * * * * * * * * * * * * * * * * * * * * * * * * * * * * * * * //

dimensions      [0 0 0 0 0 0 0];

internalField   nonuniform List<scalar> 
25
(
6.24787e-11
6.01166e-10
3.14739e-09
9.57796e-09
2.59292e-08
7.86891e-11
7.71919e-10
4.2459e-09
1.28822e-08
4.04084e-08
1.01105e-10
1.00649e-09
5.62571e-09
1.81403e-08
7.06496e-08
1.21848e-10
1.27162e-09
7.43308e-09
2.53013e-08
1.25394e-07
1.33113e-10
1.43351e-09
8.74293e-09
3.06722e-08
1.69461e-07
)
;

boundaryField
{
    fuel
    {
        type            fixedValue;
        value           uniform 0;
    }
    air
    {
        type            fixedValue;
        value           nonuniform List<scalar> 0();
    }
    outlet
    {
        type            inletOutlet;
        inletValue      uniform 0;
        value           nonuniform List<scalar> 5(6.24787e-11 6.01166e-10 3.14739e-09 9.57796e-09 2.59292e-08);
    }
    frontAndBack
    {
        type            empty;
    }
    procBoundary0to1
    {
        type            processor;
        value           nonuniform List<scalar> 5(2.41955e-07 3.37283e-07 5.59287e-07 1.00783e-06 1.35599e-06);
    }
    procBoundary0to2
    {
        type            processor;
        value           nonuniform List<scalar> 5(1.3311e-10 1.43352e-09 8.74322e-09 3.06745e-08 1.69455e-07);
    }
}


// ************************************************************************* //
