/*--------------------------------*- C++ -*----------------------------------*\
  =========                 |
  \\      /  F ield         | OpenFOAM: The Open Source CFD Toolbox
   \\    /   O peration     | Website:  https://openfoam.org
    \\  /    A nd           | Version:  8
     \\/     M anipulation  |
\*---------------------------------------------------------------------------*/
FoamFile
{
    version     2.0;
    format      ascii;
    class       volScalarField;
    location    "0.05";
    object      CH3O;
}
// * * * * * * * * * * * * * * * * * * * * * * * * * * * * * * * * * * * * * //

dimensions      [0 0 0 0 0 0 0];

internalField   nonuniform List<scalar> 
25
(
1.67335e-10
1.33696e-09
1.27095e-09
5.03148e-10
1.78254e-09
2.22301e-10
1.60578e-09
1.4866e-09
6.52268e-10
3.02901e-09
2.98828e-10
1.94683e-09
1.6864e-09
8.77324e-10
5.38337e-09
3.67257e-10
2.30832e-09
1.89065e-09
1.14404e-09
8.33315e-09
4.10728e-10
2.53767e-09
2.00704e-09
1.25587e-09
9.34802e-09
)
;

boundaryField
{
    fuel
    {
        type            fixedValue;
        value           uniform 0;
    }
    air
    {
        type            fixedValue;
        value           nonuniform List<scalar> 0();
    }
    outlet
    {
        type            inletOutlet;
        inletValue      uniform 0;
        value           nonuniform List<scalar> 5(1.67335e-10 1.33696e-09 1.27095e-09 5.03148e-10 1.78254e-09);
    }
    frontAndBack
    {
        type            empty;
    }
    procBoundary0to1
    {
        type            processor;
        value           nonuniform List<scalar> 5(1.16752e-08 2.002e-08 3.7675e-08 6.08699e-08 6.85214e-08);
    }
    procBoundary0to2
    {
        type            processor;
        value           nonuniform List<scalar> 5(4.10734e-10 2.53773e-09 2.0071e-09 1.25584e-09 9.34743e-09);
    }
}


// ************************************************************************* //
