/*--------------------------------*- C++ -*----------------------------------*\
  =========                 |
  \\      /  F ield         | OpenFOAM: The Open Source CFD Toolbox
   \\    /   O peration     | Website:  https://openfoam.org
    \\  /    A nd           | Version:  8
     \\/     M anipulation  |
\*---------------------------------------------------------------------------*/
FoamFile
{
    version     2.0;
    format      ascii;
    class       volScalarField;
    location    "0.05";
    object      CH3OH;
}
// * * * * * * * * * * * * * * * * * * * * * * * * * * * * * * * * * * * * * //

dimensions      [0 0 0 0 0 0 0];

internalField   nonuniform List<scalar> 
25
(
1.01861e-09
1.31103e-08
9.91256e-08
4.75097e-07
2.57029e-06
1.29579e-09
1.58391e-08
1.16018e-07
5.35396e-07
3.09532e-06
1.60323e-09
1.86364e-08
1.28832e-07
5.73113e-07
3.62902e-06
1.80245e-09
2.04006e-08
1.30624e-07
4.45597e-07
3.00767e-06
1.88539e-09
2.08779e-08
1.27895e-07
3.97883e-07
3.72716e-06
)
;

boundaryField
{
    fuel
    {
        type            fixedValue;
        value           uniform 0;
    }
    air
    {
        type            fixedValue;
        value           nonuniform List<scalar> 0();
    }
    outlet
    {
        type            inletOutlet;
        inletValue      uniform 0;
        value           nonuniform List<scalar> 5(1.01861e-09 1.31103e-08 9.91256e-08 4.75097e-07 2.57029e-06);
    }
    frontAndBack
    {
        type            empty;
    }
    procBoundary0to1
    {
        type            processor;
        value           nonuniform List<scalar> 5(1.11126e-05 1.51356e-05 2.07504e-05 2.35032e-05 2.15524e-05);
    }
    procBoundary0to2
    {
        type            processor;
        value           nonuniform List<scalar> 5(1.88539e-09 2.08779e-08 1.27896e-07 3.97895e-07 3.72716e-06);
    }
}


// ************************************************************************* //
