/*--------------------------------*- C++ -*----------------------------------*\
  =========                 |
  \\      /  F ield         | OpenFOAM: The Open Source CFD Toolbox
   \\    /   O peration     | Website:  https://openfoam.org
    \\  /    A nd           | Version:  8
     \\/     M anipulation  |
\*---------------------------------------------------------------------------*/
FoamFile
{
    version     2.0;
    format      ascii;
    class       volScalarField;
    location    "0.05";
    object      CH4;
}
// * * * * * * * * * * * * * * * * * * * * * * * * * * * * * * * * * * * * * //

dimensions      [0 0 0 0 0 0 0];

internalField   nonuniform List<scalar> 
25
(
0.937422
0.776805
0.548633
0.317718
0.134358
0.945363
0.799284
0.580814
0.334459
0.138803
0.950804
0.814941
0.598918
0.346683
0.141714
0.95384
0.823612
0.610171
0.352487
0.142901
0.954931
0.826768
0.614515
0.354553
0.143011
)
;

boundaryField
{
    fuel
    {
        type            fixedValue;
        value           uniform 1;
    }
    air
    {
        type            fixedValue;
        value           nonuniform List<scalar> 0();
    }
    outlet
    {
        type            inletOutlet;
        inletValue      uniform 0;
        value           nonuniform List<scalar> 5(0.937422 0.776805 0.548633 0.317718 0.134358);
    }
    frontAndBack
    {
        type            empty;
    }
    procBoundary0to1
    {
        type            processor;
        value           nonuniform List<scalar> 5(0.0456594 0.0450889 0.043714 0.0409218 0.0385006);
    }
    procBoundary0to2
    {
        type            processor;
        value           nonuniform List<scalar> 5(0.954931 0.826768 0.614517 0.354555 0.143012);
    }
}


// ************************************************************************* //
