/*--------------------------------*- C++ -*----------------------------------*\
  =========                 |
  \\      /  F ield         | OpenFOAM: The Open Source CFD Toolbox
   \\    /   O peration     | Website:  https://openfoam.org
    \\  /    A nd           | Version:  8
     \\/     M anipulation  |
\*---------------------------------------------------------------------------*/
FoamFile
{
    version     2.0;
    format      ascii;
    class       volScalarField;
    location    "0.05";
    object      HCCOH;
}
// * * * * * * * * * * * * * * * * * * * * * * * * * * * * * * * * * * * * * //

dimensions      [0 0 0 0 0 0 0];

internalField   nonuniform List<scalar> 
25
(
1.39487e-09
1.37881e-08
7.39042e-08
2.4251e-07
4.52898e-07
1.93269e-09
1.78465e-08
9.48088e-08
3.03887e-07
5.90529e-07
2.63872e-09
2.29054e-08
1.17477e-07
3.86457e-07
7.71771e-07
3.29053e-09
2.80577e-08
1.42203e-07
4.78037e-07
9.95814e-07
3.70209e-09
3.13281e-08
1.59206e-07
5.45968e-07
1.18759e-06
)
;

boundaryField
{
    fuel
    {
        type            fixedValue;
        value           uniform 0;
    }
    air
    {
        type            fixedValue;
        value           nonuniform List<scalar> 0();
    }
    outlet
    {
        type            inletOutlet;
        inletValue      uniform 0;
        value           nonuniform List<scalar> 5(1.39487e-09 1.37881e-08 7.39042e-08 2.4251e-07 4.52898e-07);
    }
    frontAndBack
    {
        type            empty;
    }
    procBoundary0to1
    {
        type            processor;
        value           nonuniform List<scalar> 5(5.10479e-07 6.80969e-07 9.87126e-07 1.44303e-06 1.88441e-06);
    }
    procBoundary0to2
    {
        type            processor;
        value           nonuniform List<scalar> 5(3.70194e-09 3.13274e-08 1.59205e-07 5.45966e-07 1.18759e-06);
    }
}


// ************************************************************************* //
