/*--------------------------------*- C++ -*----------------------------------*\
  =========                 |
  \\      /  F ield         | OpenFOAM: The Open Source CFD Toolbox
   \\    /   O peration     | Website:  https://openfoam.org
    \\  /    A nd           | Version:  8
     \\/     M anipulation  |
\*---------------------------------------------------------------------------*/
FoamFile
{
    version     2.0;
    format      ascii;
    class       volScalarField;
    location    "0.05";
    object      HCN;
}
// * * * * * * * * * * * * * * * * * * * * * * * * * * * * * * * * * * * * * //

dimensions      [0 0 0 0 0 0 0];

internalField   nonuniform List<scalar> 
25
(
2.15049e-07
1.37239e-06
4.34096e-06
8.24312e-06
8.48842e-06
3.08199e-07
1.76003e-06
5.34038e-06
9.47666e-06
9.53426e-06
4.3245e-07
2.24108e-06
6.3344e-06
1.09583e-05
1.06507e-05
5.44504e-07
2.70831e-06
7.34295e-06
1.23389e-05
1.17636e-05
6.14443e-07
2.99281e-06
7.97333e-06
1.31908e-05
1.24959e-05
)
;

boundaryField
{
    fuel
    {
        type            fixedValue;
        value           uniform 0;
    }
    air
    {
        type            fixedValue;
        value           nonuniform List<scalar> 0();
    }
    outlet
    {
        type            inletOutlet;
        inletValue      uniform 0;
        value           nonuniform List<scalar> 5(2.15049e-07 1.37239e-06 4.34096e-06 8.24312e-06 8.48842e-06);
    }
    frontAndBack
    {
        type            empty;
    }
    procBoundary0to1
    {
        type            processor;
        value           nonuniform List<scalar> 5(4.81918e-06 5.27128e-06 5.9932e-06 6.8815e-06 7.55522e-06);
    }
    procBoundary0to2
    {
        type            processor;
        value           nonuniform List<scalar> 5(6.14318e-07 2.99194e-06 7.97033e-06 1.3185e-05 1.24902e-05);
    }
}


// ************************************************************************* //
