/*--------------------------------*- C++ -*----------------------------------*\
  =========                 |
  \\      /  F ield         | OpenFOAM: The Open Source CFD Toolbox
   \\    /   O peration     | Website:  https://openfoam.org
    \\  /    A nd           | Version:  8
     \\/     M anipulation  |
\*---------------------------------------------------------------------------*/
FoamFile
{
    version     2.0;
    format      ascii;
    class       volScalarField;
    location    "0.05";
    object      HCNN;
}
// * * * * * * * * * * * * * * * * * * * * * * * * * * * * * * * * * * * * * //

dimensions      [0 0 0 0 0 0 0];

internalField   nonuniform List<scalar> 
25
(
1.28832e-21
2.55496e-20
1.04847e-18
2.4581e-17
2.47831e-16
2.34143e-21
1.02185e-19
4.41329e-18
1.04935e-16
1.14056e-15
6.2547e-21
3.86836e-19
1.72428e-17
4.49058e-16
5.35683e-15
1.86831e-20
1.30914e-18
6.11654e-17
1.74714e-15
2.33366e-14
4.21985e-20
3.11548e-18
1.50235e-16
4.53953e-15
6.58222e-14
)
;

boundaryField
{
    fuel
    {
        type            fixedValue;
        value           uniform 0;
    }
    air
    {
        type            fixedValue;
        value           nonuniform List<scalar> 0();
    }
    outlet
    {
        type            inletOutlet;
        inletValue      uniform 0;
        value           nonuniform List<scalar> 5(1.28832e-21 2.55496e-20 1.04847e-18 2.4581e-17 2.47831e-16);
    }
    frontAndBack
    {
        type            empty;
    }
    procBoundary0to1
    {
        type            processor;
        value           nonuniform List<scalar> 5(8.93511e-16 5.07502e-15 2.89708e-14 1.6615e-13 5.43325e-13);
    }
    procBoundary0to2
    {
        type            processor;
        value           nonuniform List<scalar> 5(4.21954e-20 3.11524e-18 1.50225e-16 4.53925e-15 6.58204e-14);
    }
}


// ************************************************************************* //
