/*--------------------------------*- C++ -*----------------------------------*\
  =========                 |
  \\      /  F ield         | OpenFOAM: The Open Source CFD Toolbox
   \\    /   O peration     | Website:  https://openfoam.org
    \\  /    A nd           | Version:  8
     \\/     M anipulation  |
\*---------------------------------------------------------------------------*/
FoamFile
{
    version     2.0;
    format      ascii;
    class       volScalarField;
    location    "0.05";
    object      HNCO;
}
// * * * * * * * * * * * * * * * * * * * * * * * * * * * * * * * * * * * * * //

dimensions      [0 0 0 0 0 0 0];

internalField   nonuniform List<scalar> 
25
(
4.90413e-09
4.37702e-08
2.0753e-07
5.9451e-07
9.29534e-07
6.57139e-09
5.43831e-08
2.54968e-07
7.23138e-07
1.19736e-06
8.64249e-09
6.69115e-08
3.04308e-07
8.97625e-07
1.57185e-06
1.0329e-08
7.8438e-08
3.55201e-07
1.09127e-06
2.06463e-06
1.12852e-08
8.50293e-08
3.87656e-07
1.22832e-06
2.47006e-06
)
;

boundaryField
{
    fuel
    {
        type            fixedValue;
        value           uniform 0;
    }
    air
    {
        type            fixedValue;
        value           nonuniform List<scalar> 0();
    }
    outlet
    {
        type            inletOutlet;
        inletValue      uniform 0;
        value           nonuniform List<scalar> 5(4.90413e-09 4.37702e-08 2.0753e-07 5.9451e-07 9.29534e-07);
    }
    frontAndBack
    {
        type            empty;
    }
    procBoundary0to1
    {
        type            processor;
        value           nonuniform List<scalar> 5(7.37129e-07 9.88839e-07 1.49648e-06 2.35951e-06 3.16018e-06);
    }
    procBoundary0to2
    {
        type            processor;
        value           nonuniform List<scalar> 5(1.12838e-08 8.50145e-08 3.87569e-07 1.22801e-06 2.46946e-06);
    }
}


// ************************************************************************* //
