/*--------------------------------*- C++ -*----------------------------------*\
  =========                 |
  \\      /  F ield         | OpenFOAM: The Open Source CFD Toolbox
   \\    /   O peration     | Website:  https://openfoam.org
    \\  /    A nd           | Version:  8
     \\/     M anipulation  |
\*---------------------------------------------------------------------------*/
FoamFile
{
    version     2.0;
    format      ascii;
    class       volScalarField;
    location    "0.05";
    object      N;
}
// * * * * * * * * * * * * * * * * * * * * * * * * * * * * * * * * * * * * * //

dimensions      [0 0 0 0 0 0 0];

internalField   nonuniform List<scalar> 
25
(
3.24703e-15
1.35106e-15
1.76249e-15
4.0996e-14
7.32112e-13
2.91364e-15
1.23882e-15
2.7083e-15
6.65195e-14
1.09229e-12
2.31992e-15
1.13277e-15
4.20287e-15
1.07342e-13
1.6261e-12
1.89216e-15
1.16443e-15
6.56564e-15
1.72745e-13
2.50292e-12
1.67607e-15
1.27556e-15
8.7858e-15
2.32568e-13
3.31772e-12
)
;

boundaryField
{
    fuel
    {
        type            fixedValue;
        value           uniform 0;
    }
    air
    {
        type            fixedValue;
        value           nonuniform List<scalar> 0();
    }
    outlet
    {
        type            inletOutlet;
        inletValue      uniform 0;
        value           nonuniform List<scalar> 5(3.24703e-15 1.35106e-15 1.76249e-15 4.0996e-14 7.32112e-13);
    }
    frontAndBack
    {
        type            empty;
    }
    procBoundary0to1
    {
        type            processor;
        value           nonuniform List<scalar> 5(7.05681e-12 9.58642e-12 1.31124e-11 1.91017e-11 2.62576e-11);
    }
    procBoundary0to2
    {
        type            processor;
        value           nonuniform List<scalar> 5(1.67605e-15 1.27546e-15 8.78376e-15 2.32505e-13 3.31678e-12);
    }
}


// ************************************************************************* //
