/*--------------------------------*- C++ -*----------------------------------*\
  =========                 |
  \\      /  F ield         | OpenFOAM: The Open Source CFD Toolbox
   \\    /   O peration     | Website:  https://openfoam.org
    \\  /    A nd           | Version:  8
     \\/     M anipulation  |
\*---------------------------------------------------------------------------*/
FoamFile
{
    version     2.0;
    format      ascii;
    class       volScalarField;
    location    "0.05";
    object      N2O;
}
// * * * * * * * * * * * * * * * * * * * * * * * * * * * * * * * * * * * * * //

dimensions      [0 0 0 0 0 0 0];

internalField   nonuniform List<scalar> 
25
(
6.54771e-10
6.51949e-09
3.81465e-08
1.44095e-07
3.5991e-07
7.13115e-10
6.62771e-09
3.70974e-08
1.38508e-07
3.38498e-07
7.58146e-10
6.66066e-09
3.57497e-08
1.29943e-07
3.06315e-07
7.64982e-10
6.55786e-09
3.40743e-08
1.2002e-07
2.68255e-07
7.63039e-10
6.45265e-09
3.28446e-08
1.12701e-07
2.41418e-07
)
;

boundaryField
{
    fuel
    {
        type            fixedValue;
        value           uniform 0;
    }
    air
    {
        type            fixedValue;
        value           nonuniform List<scalar> 0();
    }
    outlet
    {
        type            inletOutlet;
        inletValue      uniform 0;
        value           nonuniform List<scalar> 5(6.54771e-10 6.51949e-09 3.81465e-08 1.44095e-07 3.5991e-07);
    }
    frontAndBack
    {
        type            empty;
    }
    procBoundary0to1
    {
        type            processor;
        value           nonuniform List<scalar> 5(5.61856e-07 5.31043e-07 4.73288e-07 4.0209e-07 3.5144e-07);
    }
    procBoundary0to2
    {
        type            processor;
        value           nonuniform List<scalar> 5(7.63133e-10 6.45307e-09 3.28453e-08 1.12701e-07 2.41419e-07);
    }
}


// ************************************************************************* //
