/*--------------------------------*- C++ -*----------------------------------*\
  =========                 |
  \\      /  F ield         | OpenFOAM: The Open Source CFD Toolbox
   \\    /   O peration     | Website:  https://openfoam.org
    \\  /    A nd           | Version:  8
     \\/     M anipulation  |
\*---------------------------------------------------------------------------*/
FoamFile
{
    version     2.0;
    format      ascii;
    class       volScalarField;
    location    "0.05";
    object      NCO;
}
// * * * * * * * * * * * * * * * * * * * * * * * * * * * * * * * * * * * * * //

dimensions      [0 0 0 0 0 0 0];

internalField   nonuniform List<scalar> 
25
(
6.57055e-14
1.17152e-13
2.02844e-13
1.03343e-12
1.32404e-11
6.06043e-14
1.10142e-13
2.62906e-13
1.59539e-12
2.14952e-11
5.80947e-14
1.1368e-13
3.53713e-13
2.7819e-12
3.849e-11
5.63539e-14
1.27558e-13
4.96239e-13
4.94381e-12
6.9801e-11
5.55404e-14
1.39295e-13
5.96706e-13
6.63306e-12
9.29846e-11
)
;

boundaryField
{
    fuel
    {
        type            fixedValue;
        value           uniform 0;
    }
    air
    {
        type            fixedValue;
        value           nonuniform List<scalar> 0();
    }
    outlet
    {
        type            inletOutlet;
        inletValue      uniform 0;
        value           nonuniform List<scalar> 5(6.57055e-14 1.17152e-13 2.02844e-13 1.03343e-12 1.32404e-11);
    }
    frontAndBack
    {
        type            empty;
    }
    procBoundary0to1
    {
        type            processor;
        value           nonuniform List<scalar> 5(7.40291e-11 1.3071e-10 2.47483e-10 4.89355e-10 7.24332e-10);
    }
    procBoundary0to2
    {
        type            processor;
        value           nonuniform List<scalar> 5(5.55196e-14 1.39253e-13 5.96548e-13 6.63074e-12 9.29534e-11);
    }
}


// ************************************************************************* //
