/*--------------------------------*- C++ -*----------------------------------*\
  =========                 |
  \\      /  F ield         | OpenFOAM: The Open Source CFD Toolbox
   \\    /   O peration     | Website:  https://openfoam.org
    \\  /    A nd           | Version:  8
     \\/     M anipulation  |
\*---------------------------------------------------------------------------*/
FoamFile
{
    version     2.0;
    format      ascii;
    class       volScalarField;
    location    "0.05";
    object      O;
}
// * * * * * * * * * * * * * * * * * * * * * * * * * * * * * * * * * * * * * //

dimensions      [0 0 0 0 0 0 0];

internalField   nonuniform List<scalar> 
25
(
2.42311e-12
6.27676e-11
3.20632e-09
1.02402e-07
1.90304e-06
2.40173e-12
8.95848e-11
4.51234e-09
1.41306e-07
2.41508e-06
2.50971e-12
1.19441e-10
5.86131e-09
1.80083e-07
2.81295e-06
2.85645e-12
1.52473e-10
7.353e-09
2.21447e-07
3.23143e-06
3.17864e-12
1.78188e-10
8.52206e-09
2.54023e-07
3.60344e-06
)
;

boundaryField
{
    fuel
    {
        type            fixedValue;
        value           uniform 0;
    }
    air
    {
        type            fixedValue;
        value           nonuniform List<scalar> 0();
    }
    outlet
    {
        type            inletOutlet;
        inletValue      uniform 0;
        value           nonuniform List<scalar> 5(2.42311e-12 6.27676e-11 3.20632e-09 1.02402e-07 1.90304e-06);
    }
    frontAndBack
    {
        type            empty;
    }
    procBoundary0to1
    {
        type            processor;
        value           nonuniform List<scalar> 5(1.91568e-05 2.23098e-05 2.39926e-05 2.62478e-05 2.8721e-05);
    }
    procBoundary0to2
    {
        type            processor;
        value           nonuniform List<scalar> 5(3.17831e-12 1.78172e-10 8.52127e-09 2.53998e-07 3.60315e-06);
    }
}


// ************************************************************************* //
