/*--------------------------------*- C++ -*----------------------------------*\
  =========                 |
  \\      /  F ield         | OpenFOAM: The Open Source CFD Toolbox
   \\    /   O peration     | Website:  https://openfoam.org
    \\  /    A nd           | Version:  8
     \\/     M anipulation  |
\*---------------------------------------------------------------------------*/
FoamFile
{
    version     2.0;
    format      ascii;
    class       volScalarField;
    location    "0.05";
    object      O2;
}
// * * * * * * * * * * * * * * * * * * * * * * * * * * * * * * * * * * * * * //

dimensions      [0 0 0 0 0 0 0];

internalField   nonuniform List<scalar> 
25
(
2.94855e-05
0.000328633
0.0021891
0.00943699
0.0265037
3.25958e-05
0.000343135
0.00221264
0.00947572
0.0262981
3.56953e-05
0.00035735
0.00221902
0.00933712
0.0250704
3.7425e-05
0.000365876
0.00220178
0.00900344
0.0228784
3.83068e-05
0.00036923
0.00217784
0.00868128
0.0210804
)
;

boundaryField
{
    fuel
    {
        type            fixedValue;
        value           uniform 0;
    }
    air
    {
        type            fixedValue;
        value           nonuniform List<scalar> 0();
    }
    outlet
    {
        type            inletOutlet;
        inletValue      uniform 0;
        value           nonuniform List<scalar> 5(2.94855e-05 0.000328633 0.0021891 0.00943699 0.0265037);
    }
    frontAndBack
    {
        type            empty;
    }
    procBoundary0to1
    {
        type            processor;
        value           nonuniform List<scalar> 5(0.0446217 0.044126 0.0413326 0.03601 0.0315549);
    }
    procBoundary0to2
    {
        type            processor;
        value           nonuniform List<scalar> 5(3.83053e-05 0.000369223 0.00217787 0.00868184 0.0210829);
    }
}


// ************************************************************************* //
