/*--------------------------------*- C++ -*----------------------------------*\
  =========                 |
  \\      /  F ield         | OpenFOAM: The Open Source CFD Toolbox
   \\    /   O peration     | Website:  https://openfoam.org
    \\  /    A nd           | Version:  8
     \\/     M anipulation  |
\*---------------------------------------------------------------------------*/
FoamFile
{
    version     2.0;
    format      ascii;
    class       volScalarField;
    location    "0.05";
    object      T;
}
// * * * * * * * * * * * * * * * * * * * * * * * * * * * * * * * * * * * * * //

dimensions      [0 0 0 1 0 0 0];

internalField   nonuniform List<scalar> 
25
(
320.914
412.357
580.187
826.648
1136.98
324.225
418.238
586.703
836.336
1160.13
327.264
424.777
594.791
850.722
1185.01
328.915
429.784
602.917
865.974
1209.8
329.713
432.403
607.832
875.247
1225.51
)
;

boundaryField
{
    fuel
    {
        type            fixedValue;
        value           uniform 293;
    }
    air
    {
        type            fixedValue;
        value           nonuniform List<scalar> 0();
    }
    outlet
    {
        type            inletOutlet;
        inletValue      uniform 293;
        value           nonuniform List<scalar> 5(321.886 415.737 585.723 830.287 1133.55);
    }
    frontAndBack
    {
        type            empty;
    }
    procBoundary0to1
    {
        type            processor;
        value           nonuniform List<scalar> 5(1394.18 1423.02 1462.43 1506.11 1535.25);
    }
    procBoundary0to2
    {
        type            processor;
        value           nonuniform List<scalar> 5(329.713 432.403 607.832 875.245 1225.51);
    }
}


// ************************************************************************* //
