/*--------------------------------*- C++ -*----------------------------------*\
  =========                 |
  \\      /  F ield         | OpenFOAM: The Open Source CFD Toolbox
   \\    /   O peration     | Website:  https://openfoam.org
    \\  /    A nd           | Version:  8
     \\/     M anipulation  |
\*---------------------------------------------------------------------------*/
FoamFile
{
    version     2.0;
    format      ascii;
    class       volVectorField;
    location    "0.05";
    object      U;
}
// * * * * * * * * * * * * * * * * * * * * * * * * * * * * * * * * * * * * * //

dimensions      [0 1 -1 0 0 0 0];

internalField   nonuniform List<vector> 
25
(
(0.101845 -0.0627327 0)
(0.0936995 -0.147016 0)
(0.0656002 -0.213052 0)
(0.0202009 -0.268638 0)
(-0.0363914 -0.30647 0)
(0.101638 -0.0425155 0)
(0.0969999 -0.0995487 0)
(0.0700135 -0.148008 0)
(0.019858 -0.193952 0)
(-0.0469961 -0.224672 0)
(0.1005 -0.0317136 0)
(0.0963183 -0.0757048 0)
(0.0690694 -0.113257 0)
(0.0173459 -0.147054 0)
(-0.0548647 -0.168015 0)
(0.100796 -0.019675 0)
(0.0957625 -0.0460064 0)
(0.0669991 -0.0681945 0)
(0.0138079 -0.0893253 0)
(-0.0609603 -0.102071 0)
(0.101461 -0.00671487 0)
(0.0937157 -0.0158909 0)
(0.0661703 -0.0227119 0)
(0.012156 -0.0301587 0)
(-0.064189 -0.0344525 0)
)
;

boundaryField
{
    fuel
    {
        type            fixedValue;
        value           uniform (0.1 0 0);
    }
    air
    {
        type            fixedValue;
        value           nonuniform List<vector> 0();
    }
    outlet
    {
        type            pressureInletOutletVelocity;
        value           nonuniform List<vector> 5((0.101845 -0.0627327 0) (0.0936995 -0.147016 0) (0.0656002 -0.213052 0) (0.0202009 -0.268638 0) (-0.0363914 -0.30647 0));
    }
    frontAndBack
    {
        type            empty;
    }
    procBoundary0to1
    {
        type            processor;
        value           nonuniform List<vector> 5((-0.0998131 -0.322562 0) (-0.121904 -0.23592 0) (-0.135586 -0.175002 0) (-0.144508 -0.105998 0) (-0.148654 -0.0357127 0));
    }
    procBoundary0to2
    {
        type            processor;
        value           nonuniform List<vector> 5((0.101458 0.0067018 0) (0.0937152 0.0159122 0) (0.0661627 0.0227484 0) (0.0121556 0.0301394 -4.61532e-29) (-0.0640507 0.0345388 0));
    }
}


// ************************************************************************* //
