/*--------------------------------*- C++ -*----------------------------------*\
  =========                 |
  \\      /  F ield         | OpenFOAM: The Open Source CFD Toolbox
   \\    /   O peration     | Website:  https://openfoam.org
    \\  /    A nd           | Version:  8
     \\/     M anipulation  |
\*---------------------------------------------------------------------------*/
FoamFile
{
    version     2.0;
    format      ascii;
    class       volScalarField;
    location    "0.15";
    object      C;
}
// * * * * * * * * * * * * * * * * * * * * * * * * * * * * * * * * * * * * * //

dimensions      [0 0 0 0 0 0 0];

internalField   nonuniform List<scalar> 
25
(
5.57817e-17
4.4506e-15
2.38502e-13
6.41738e-12
6.43341e-11
5.42173e-17
4.32945e-15
2.3211e-13
6.23475e-12
6.20971e-11
5.27164e-17
4.20606e-15
2.24819e-13
6.01516e-12
5.99863e-11
4.73839e-17
3.7728e-15
2.00108e-13
5.26108e-12
5.04823e-11
4.29038e-17
3.4082e-15
1.79232e-13
4.62075e-12
4.11095e-11
)
;

boundaryField
{
    fuel
    {
        type            fixedValue;
        value           uniform 0;
    }
    air
    {
        type            fixedValue;
        value           nonuniform List<scalar> 0();
    }
    outlet
    {
        type            inletOutlet;
        inletValue      uniform 0;
        value           nonuniform List<scalar> 5(4.29038e-17 3.4082e-15 1.79232e-13 4.62075e-12 4.11095e-11);
    }
    frontAndBack
    {
        type            empty;
    }
    procBoundary2to0
    {
        type            processor;
        value           nonuniform List<scalar> 5(5.6425e-17 4.5012e-15 2.41159e-13 6.48575e-12 6.49343e-11);
    }
    procBoundary2to3
    {
        type            processor;
        value           nonuniform List<scalar> 5(3.58179e-10 3.44822e-10 3.39299e-10 2.79564e-10 2.22694e-10);
    }
}


// ************************************************************************* //
