/*--------------------------------*- C++ -*----------------------------------*\
  =========                 |
  \\      /  F ield         | OpenFOAM: The Open Source CFD Toolbox
   \\    /   O peration     | Website:  https://openfoam.org
    \\  /    A nd           | Version:  8
     \\/     M anipulation  |
\*---------------------------------------------------------------------------*/
FoamFile
{
    version     2.0;
    format      ascii;
    class       volScalarField;
    location    "0.15";
    object      C2H;
}
// * * * * * * * * * * * * * * * * * * * * * * * * * * * * * * * * * * * * * //

dimensions      [0 0 0 0 0 0 0];

internalField   nonuniform List<scalar> 
25
(
2.11401e-14
1.68647e-12
9.03614e-11
2.43061e-09
2.4349e-08
2.09277e-14
1.67136e-12
8.9641e-11
2.40939e-09
2.40172e-08
2.08452e-14
1.66265e-12
8.8888e-11
2.37763e-09
2.36385e-08
2.05021e-14
1.63723e-12
8.752e-11
2.33091e-09
2.27757e-08
2.05081e-14
1.63824e-12
8.72949e-11
2.29998e-09
2.11226e-08
)
;

boundaryField
{
    fuel
    {
        type            fixedValue;
        value           uniform 0;
    }
    air
    {
        type            fixedValue;
        value           nonuniform List<scalar> 0();
    }
    outlet
    {
        type            inletOutlet;
        inletValue      uniform 0;
        value           nonuniform List<scalar> 5(2.05081e-14 1.63824e-12 8.72949e-11 2.29998e-09 2.11226e-08);
    }
    frontAndBack
    {
        type            empty;
    }
    procBoundary2to0
    {
        type            processor;
        value           nonuniform List<scalar> 5(2.11996e-14 1.69116e-12 9.06077e-11 2.43696e-09 2.44051e-08);
    }
    procBoundary2to3
    {
        type            processor;
        value           nonuniform List<scalar> 5(1.35249e-07 1.33414e-07 1.32494e-07 1.29023e-07 1.19168e-07);
    }
}


// ************************************************************************* //
