/*--------------------------------*- C++ -*----------------------------------*\
  =========                 |
  \\      /  F ield         | OpenFOAM: The Open Source CFD Toolbox
   \\    /   O peration     | Website:  https://openfoam.org
    \\  /    A nd           | Version:  8
     \\/     M anipulation  |
\*---------------------------------------------------------------------------*/
FoamFile
{
    version     2.0;
    format      ascii;
    class       volScalarField;
    location    "0.15";
    object      C2H2;
}
// * * * * * * * * * * * * * * * * * * * * * * * * * * * * * * * * * * * * * //

dimensions      [0 0 0 0 0 0 0];

internalField   nonuniform List<scalar> 
25
(
4.58834e-05
0.000398484
0.0019016
0.00491667
0.00685136
4.57282e-05
0.000398268
0.00191292
0.00497676
0.00696106
4.59159e-05
0.000402603
0.00194446
0.00508875
0.00718266
4.58483e-05
0.00040444
0.00197809
0.00524996
0.00751214
4.60081e-05
0.000409229
0.00203055
0.00545837
0.00784421
)
;

boundaryField
{
    fuel
    {
        type            fixedValue;
        value           uniform 0;
    }
    air
    {
        type            fixedValue;
        value           nonuniform List<scalar> 0();
    }
    outlet
    {
        type            inletOutlet;
        inletValue      uniform 0;
        value           nonuniform List<scalar> 5(4.60081e-05 0.000409229 0.00203055 0.00545837 0.00784421);
    }
    frontAndBack
    {
        type            empty;
    }
    procBoundary2to0
    {
        type            processor;
        value           nonuniform List<scalar> 5(4.58839e-05 0.000398483 0.00190159 0.00491667 0.00685113);
    }
    procBoundary2to3
    {
        type            processor;
        value           nonuniform List<scalar> 5(0.00765007 0.00782009 0.00818814 0.00880915 0.00950438);
    }
}


// ************************************************************************* //
