/*--------------------------------*- C++ -*----------------------------------*\
  =========                 |
  \\      /  F ield         | OpenFOAM: The Open Source CFD Toolbox
   \\    /   O peration     | Website:  https://openfoam.org
    \\  /    A nd           | Version:  8
     \\/     M anipulation  |
\*---------------------------------------------------------------------------*/
FoamFile
{
    version     2.0;
    format      ascii;
    class       volScalarField;
    location    "0.15";
    object      CH2CHO;
}
// * * * * * * * * * * * * * * * * * * * * * * * * * * * * * * * * * * * * * //

dimensions      [0 0 0 0 0 0 0];

internalField   nonuniform List<scalar> 
25
(
9.73727e-11
9.01481e-10
1.16035e-08
1.2448e-08
1.18892e-09
9.73458e-11
9.03417e-10
1.17024e-08
1.2393e-08
1.20137e-09
9.75219e-11
9.1328e-10
1.19228e-08
1.24303e-08
1.31361e-09
9.74182e-11
9.21733e-10
1.21799e-08
1.23835e-08
2.23133e-09
9.87148e-11
9.4575e-10
1.26173e-08
1.15478e-08
2.4336e-09
)
;

boundaryField
{
    fuel
    {
        type            fixedValue;
        value           uniform 0;
    }
    air
    {
        type            fixedValue;
        value           nonuniform List<scalar> 0();
    }
    outlet
    {
        type            inletOutlet;
        inletValue      uniform 0;
        value           nonuniform List<scalar> 5(9.87148e-11 9.4575e-10 1.26173e-08 1.15478e-08 2.4336e-09);
    }
    frontAndBack
    {
        type            empty;
    }
    procBoundary2to0
    {
        type            processor;
        value           nonuniform List<scalar> 5(9.73992e-11 9.01788e-10 1.16082e-08 1.24479e-08 1.19043e-09);
    }
    procBoundary2to3
    {
        type            processor;
        value           nonuniform List<scalar> 5(8.42414e-10 8.92511e-10 1.18017e-09 1.6284e-09 2.21372e-09);
    }
}


// ************************************************************************* //
