/*--------------------------------*- C++ -*----------------------------------*\
  =========                 |
  \\      /  F ield         | OpenFOAM: The Open Source CFD Toolbox
   \\    /   O peration     | Website:  https://openfoam.org
    \\  /    A nd           | Version:  8
     \\/     M anipulation  |
\*---------------------------------------------------------------------------*/
FoamFile
{
    version     2.0;
    format      ascii;
    class       volScalarField;
    location    "0.15";
    object      CH3CHO;
}
// * * * * * * * * * * * * * * * * * * * * * * * * * * * * * * * * * * * * * //

dimensions      [0 0 0 0 0 0 0];

internalField   nonuniform List<scalar> 
25
(
1.49841e-09
1.39035e-08
6.94631e-08
1.7572e-07
1.58817e-08
1.48977e-09
1.3827e-08
6.93096e-08
1.75761e-07
1.60082e-08
1.48953e-09
1.38613e-08
6.95117e-08
1.76039e-07
1.65014e-08
1.47499e-09
1.37342e-08
6.90876e-08
1.73982e-07
1.69997e-08
1.464e-09
1.36538e-08
6.87011e-08
1.68208e-07
1.76483e-08
)
;

boundaryField
{
    fuel
    {
        type            fixedValue;
        value           uniform 0;
    }
    air
    {
        type            fixedValue;
        value           nonuniform List<scalar> 0();
    }
    outlet
    {
        type            inletOutlet;
        inletValue      uniform 0;
        value           nonuniform List<scalar> 5(1.464e-09 1.36538e-08 6.87011e-08 1.68208e-07 1.76483e-08);
    }
    frontAndBack
    {
        type            empty;
    }
    procBoundary2to0
    {
        type            processor;
        value           nonuniform List<scalar> 5(1.49874e-09 1.39112e-08 6.95304e-08 1.75874e-07 1.59111e-08);
    }
    procBoundary2to3
    {
        type            processor;
        value           nonuniform List<scalar> 5(6.86624e-09 7.42228e-09 1.03642e-08 1.40693e-08 2.09769e-08);
    }
}


// ************************************************************************* //
