/*--------------------------------*- C++ -*----------------------------------*\
  =========                 |
  \\      /  F ield         | OpenFOAM: The Open Source CFD Toolbox
   \\    /   O peration     | Website:  https://openfoam.org
    \\  /    A nd           | Version:  8
     \\/     M anipulation  |
\*---------------------------------------------------------------------------*/
FoamFile
{
    version     2.0;
    format      ascii;
    class       volScalarField;
    location    "0.15";
    object      CH3OH;
}
// * * * * * * * * * * * * * * * * * * * * * * * * * * * * * * * * * * * * * //

dimensions      [0 0 0 0 0 0 0];

internalField   nonuniform List<scalar> 
25
(
3.15738e-08
3.13568e-07
1.70067e-06
4.78999e-07
3.27331e-07
3.13846e-08
3.11585e-07
1.69161e-06
4.29544e-07
3.32149e-07
3.13865e-08
3.11947e-07
1.68618e-06
3.38596e-07
3.60997e-07
3.11475e-08
3.09174e-07
1.66761e-06
2.19219e-07
3.9646e-07
3.1136e-08
3.09723e-07
1.67792e-06
1.65908e-07
4.33433e-07
)
;

boundaryField
{
    fuel
    {
        type            fixedValue;
        value           uniform 0;
    }
    air
    {
        type            fixedValue;
        value           nonuniform List<scalar> 0();
    }
    outlet
    {
        type            inletOutlet;
        inletValue      uniform 0;
        value           nonuniform List<scalar> 5(3.1136e-08 3.09723e-07 1.67792e-06 1.65908e-07 4.33433e-07);
    }
    frontAndBack
    {
        type            empty;
    }
    procBoundary2to0
    {
        type            processor;
        value           nonuniform List<scalar> 5(3.15772e-08 3.13604e-07 1.7005e-06 4.77936e-07 3.28567e-07);
    }
    procBoundary2to3
    {
        type            processor;
        value           nonuniform List<scalar> 5(1.60652e-06 1.65088e-06 1.89225e-06 2.19168e-06 2.49856e-06);
    }
}


// ************************************************************************* //
