/*--------------------------------*- C++ -*----------------------------------*\
  =========                 |
  \\      /  F ield         | OpenFOAM: The Open Source CFD Toolbox
   \\    /   O peration     | Website:  https://openfoam.org
    \\  /    A nd           | Version:  8
     \\/     M anipulation  |
\*---------------------------------------------------------------------------*/
FoamFile
{
    version     2.0;
    format      ascii;
    class       volScalarField;
    location    "0.15";
    object      CH4;
}
// * * * * * * * * * * * * * * * * * * * * * * * * * * * * * * * * * * * * * //

dimensions      [0 0 0 0 0 0 0];

internalField   nonuniform List<scalar> 
25
(
0.993497
0.947933
0.765482
0.396261
0.138767
0.993513
0.94809
0.765454
0.39513
0.138824
0.993485
0.947772
0.764045
0.393292
0.139231
0.993494
0.947868
0.763232
0.390199
0.139855
0.993479
0.947615
0.760239
0.381623
0.140036
)
;

boundaryField
{
    fuel
    {
        type            fixedValue;
        value           uniform 1;
    }
    air
    {
        type            fixedValue;
        value           nonuniform List<scalar> 0();
    }
    outlet
    {
        type            inletOutlet;
        inletValue      uniform 0;
        value           nonuniform List<scalar> 5(0.993479 0.947615 0.760239 0.381623 0.140036);
    }
    frontAndBack
    {
        type            empty;
    }
    procBoundary2to0
    {
        type            processor;
        value           nonuniform List<scalar> 5(0.993497 0.947933 0.76548 0.396256 0.138766);
    }
    procBoundary2to3
    {
        type            processor;
        value           nonuniform List<scalar> 5(0.0189434 0.0190848 0.0195556 0.0204022 0.0215217);
    }
}


// ************************************************************************* //
