/*--------------------------------*- C++ -*----------------------------------*\
  =========                 |
  \\      /  F ield         | OpenFOAM: The Open Source CFD Toolbox
   \\    /   O peration     | Website:  https://openfoam.org
    \\  /    A nd           | Version:  8
     \\/     M anipulation  |
\*---------------------------------------------------------------------------*/
FoamFile
{
    version     2.0;
    format      ascii;
    class       volScalarField;
    location    "0.15";
    object      H;
}
// * * * * * * * * * * * * * * * * * * * * * * * * * * * * * * * * * * * * * //

dimensions      [0 0 0 0 0 0 0];

internalField   nonuniform List<scalar> 
25
(
6.64176e-13
5.2335e-11
2.77885e-09
7.35623e-08
7.32166e-07
6.56295e-13
5.17542e-11
2.75043e-09
7.27304e-08
7.20002e-07
6.52661e-13
5.13939e-11
2.72186e-09
7.16052e-08
7.06707e-07
6.41895e-13
5.05756e-11
2.67795e-09
7.01184e-08
6.7956e-07
6.4559e-13
5.08938e-11
2.68846e-09
6.9732e-08
6.36567e-07
)
;

boundaryField
{
    fuel
    {
        type            fixedValue;
        value           uniform 0;
    }
    air
    {
        type            fixedValue;
        value           nonuniform List<scalar> 0();
    }
    outlet
    {
        type            inletOutlet;
        inletValue      uniform 0;
        value           nonuniform List<scalar> 5(6.4559e-13 5.08938e-11 2.68846e-09 6.9732e-08 6.36567e-07);
    }
    frontAndBack
    {
        type            empty;
    }
    procBoundary2to0
    {
        type            processor;
        value           nonuniform List<scalar> 5(6.66196e-13 5.24924e-11 2.7871e-09 7.37758e-08 7.34049e-07);
    }
    procBoundary2to3
    {
        type            processor;
        value           nonuniform List<scalar> 5(4.00271e-06 3.93349e-06 3.89326e-06 3.79143e-06 3.54748e-06);
    }
}


// ************************************************************************* //
