/*--------------------------------*- C++ -*----------------------------------*\
  =========                 |
  \\      /  F ield         | OpenFOAM: The Open Source CFD Toolbox
   \\    /   O peration     | Website:  https://openfoam.org
    \\  /    A nd           | Version:  8
     \\/     M anipulation  |
\*---------------------------------------------------------------------------*/
FoamFile
{
    version     2.0;
    format      ascii;
    class       volScalarField;
    location    "0.15";
    object      H2CN;
}
// * * * * * * * * * * * * * * * * * * * * * * * * * * * * * * * * * * * * * //

dimensions      [0 0 0 0 0 0 0];

internalField   nonuniform List<scalar> 
25
(
9.94636e-12
8.51159e-11
3.52322e-10
2.50605e-11
3.36243e-12
9.82662e-12
8.41465e-11
3.49095e-10
2.46827e-11
3.31267e-12
9.69867e-12
8.3226e-11
3.425e-10
2.39857e-11
3.26554e-12
9.47683e-12
8.13289e-11
3.3357e-10
2.31899e-11
3.08628e-12
9.30653e-12
7.99436e-11
3.25543e-10
2.1458e-11
2.90884e-12
)
;

boundaryField
{
    fuel
    {
        type            fixedValue;
        value           uniform 0;
    }
    air
    {
        type            fixedValue;
        value           nonuniform List<scalar> 0();
    }
    outlet
    {
        type            inletOutlet;
        inletValue      uniform 0;
        value           nonuniform List<scalar> 5(9.30653e-12 7.99436e-11 3.25543e-10 2.1458e-11 2.90884e-12);
    }
    frontAndBack
    {
        type            empty;
    }
    procBoundary2to0
    {
        type            processor;
        value           nonuniform List<scalar> 5(9.95039e-12 8.51596e-11 3.52375e-10 2.50637e-11 3.37063e-12);
    }
    procBoundary2to3
    {
        type            processor;
        value           nonuniform List<scalar> 5(6.55557e-12 6.43209e-12 6.593e-12 5.94822e-12 5.65183e-12);
    }
}


// ************************************************************************* //
