/*--------------------------------*- C++ -*----------------------------------*\
  =========                 |
  \\      /  F ield         | OpenFOAM: The Open Source CFD Toolbox
   \\    /   O peration     | Website:  https://openfoam.org
    \\  /    A nd           | Version:  8
     \\/     M anipulation  |
\*---------------------------------------------------------------------------*/
FoamFile
{
    version     2.0;
    format      ascii;
    class       volScalarField;
    location    "0.15";
    object      H2O;
}
// * * * * * * * * * * * * * * * * * * * * * * * * * * * * * * * * * * * * * //

dimensions      [0 0 0 0 0 0 0];

internalField   nonuniform List<scalar> 
25
(
0.000458864
0.00431249
0.0224908
0.0631178
0.0932351
0.000457155
0.00429958
0.0225042
0.0632819
0.0933134
0.000458706
0.00432732
0.0226598
0.063559
0.0934532
0.000457309
0.00432187
0.0227691
0.0640202
0.0936635
0.000458313
0.00434985
0.0231077
0.0651153
0.0939664
)
;

boundaryField
{
    fuel
    {
        type            fixedValue;
        value           uniform 0;
    }
    air
    {
        type            fixedValue;
        value           nonuniform List<scalar> 0();
    }
    outlet
    {
        type            inletOutlet;
        inletValue      uniform 0;
        value           nonuniform List<scalar> 5(0.000458313 0.00434985 0.0231077 0.0651153 0.0939664);
    }
    frontAndBack
    {
        type            empty;
    }
    procBoundary2to0
    {
        type            processor;
        value           nonuniform List<scalar> 5(0.000458869 0.00431255 0.0224913 0.0631191 0.0932357);
    }
    procBoundary2to3
    {
        type            processor;
        value           nonuniform List<scalar> 5(0.107467 0.107579 0.107854 0.108347 0.109001);
    }
}


// ************************************************************************* //
