/*--------------------------------*- C++ -*----------------------------------*\
  =========                 |
  \\      /  F ield         | OpenFOAM: The Open Source CFD Toolbox
   \\    /   O peration     | Website:  https://openfoam.org
    \\  /    A nd           | Version:  8
     \\/     M anipulation  |
\*---------------------------------------------------------------------------*/
FoamFile
{
    version     2.0;
    format      ascii;
    class       volScalarField;
    location    "0.15";
    object      HCCOH;
}
// * * * * * * * * * * * * * * * * * * * * * * * * * * * * * * * * * * * * * //

dimensions      [0 0 0 0 0 0 0];

internalField   nonuniform List<scalar> 
25
(
3.15396e-08
3.04818e-07
1.6378e-06
4.7284e-06
7.2958e-06
3.13469e-08
3.03133e-07
1.63347e-06
4.72487e-06
7.29111e-06
3.13441e-08
3.0402e-07
1.63709e-06
4.71371e-06
7.24948e-06
3.11051e-08
3.02201e-07
1.63317e-06
4.68057e-06
7.03778e-06
3.10395e-08
3.02776e-07
1.6463e-06
4.70192e-06
6.91415e-06
)
;

boundaryField
{
    fuel
    {
        type            fixedValue;
        value           uniform 0;
    }
    air
    {
        type            fixedValue;
        value           nonuniform List<scalar> 0();
    }
    outlet
    {
        type            inletOutlet;
        inletValue      uniform 0;
        value           nonuniform List<scalar> 5(3.10395e-08 3.02776e-07 1.6463e-06 4.70192e-06 6.91415e-06);
    }
    frontAndBack
    {
        type            empty;
    }
    procBoundary2to0
    {
        type            processor;
        value           nonuniform List<scalar> 5(3.15529e-08 3.05046e-07 1.63943e-06 4.7314e-06 7.29644e-06);
    }
    procBoundary2to3
    {
        type            processor;
        value           nonuniform List<scalar> 5(1.11136e-05 1.11786e-05 1.12561e-05 1.13385e-05 1.13561e-05);
    }
}


// ************************************************************************* //
