/*--------------------------------*- C++ -*----------------------------------*\
  =========                 |
  \\      /  F ield         | OpenFOAM: The Open Source CFD Toolbox
   \\    /   O peration     | Website:  https://openfoam.org
    \\  /    A nd           | Version:  8
     \\/     M anipulation  |
\*---------------------------------------------------------------------------*/
FoamFile
{
    version     2.0;
    format      ascii;
    class       volScalarField;
    location    "0.15";
    object      N;
}
// * * * * * * * * * * * * * * * * * * * * * * * * * * * * * * * * * * * * * //

dimensions      [0 0 0 0 0 0 0];

internalField   nonuniform List<scalar> 
25
(
1.04882e-15
1.30618e-14
2.42391e-13
5.71534e-12
5.72555e-11
1.0256e-15
1.27138e-14
2.35109e-13
5.53887e-12
5.51269e-11
9.81528e-16
1.21772e-14
2.25818e-13
5.31024e-12
5.28126e-11
9.10023e-16
1.12253e-14
2.0514e-13
4.7447e-12
4.56542e-11
8.45018e-16
1.03597e-14
1.88287e-13
4.30032e-12
3.85881e-11
)
;

boundaryField
{
    fuel
    {
        type            fixedValue;
        value           uniform 0;
    }
    air
    {
        type            fixedValue;
        value           nonuniform List<scalar> 0();
    }
    outlet
    {
        type            inletOutlet;
        inletValue      uniform 0;
        value           nonuniform List<scalar> 5(8.45018e-16 1.03597e-14 1.88287e-13 4.30032e-12 3.85881e-11);
    }
    frontAndBack
    {
        type            empty;
    }
    procBoundary2to0
    {
        type            processor;
        value           nonuniform List<scalar> 5(1.04929e-15 1.30793e-14 2.43913e-13 5.75598e-12 5.76128e-11);
    }
    procBoundary2to3
    {
        type            processor;
        value           nonuniform List<scalar> 5(3.07362e-10 2.95238e-10 2.87049e-10 2.53338e-10 2.11116e-10);
    }
}


// ************************************************************************* //
