/*--------------------------------*- C++ -*----------------------------------*\
  =========                 |
  \\      /  F ield         | OpenFOAM: The Open Source CFD Toolbox
   \\    /   O peration     | Website:  https://openfoam.org
    \\  /    A nd           | Version:  8
     \\/     M anipulation  |
\*---------------------------------------------------------------------------*/
FoamFile
{
    version     2.0;
    format      ascii;
    class       volScalarField;
    location    "0.15";
    object      N2O;
}
// * * * * * * * * * * * * * * * * * * * * * * * * * * * * * * * * * * * * * //

dimensions      [0 0 0 0 0 0 0];

internalField   nonuniform List<scalar> 
25
(
1.18784e-09
9.96902e-09
4.68903e-08
1.24545e-07
1.81353e-07
1.18322e-09
9.90771e-09
4.6625e-08
1.23642e-07
1.79196e-07
1.18549e-09
9.91373e-09
4.64193e-08
1.21797e-07
1.73996e-07
1.17922e-09
9.82116e-09
4.59139e-08
1.19244e-07
1.66372e-07
1.17743e-09
9.79377e-09
4.58204e-08
1.17625e-07
1.57915e-07
)
;

boundaryField
{
    fuel
    {
        type            fixedValue;
        value           uniform 0;
    }
    air
    {
        type            fixedValue;
        value           nonuniform List<scalar> 0();
    }
    outlet
    {
        type            inletOutlet;
        inletValue      uniform 0;
        value           nonuniform List<scalar> 5(1.17743e-09 9.79377e-09 4.58204e-08 1.17625e-07 1.57915e-07);
    }
    frontAndBack
    {
        type            empty;
    }
    procBoundary2to0
    {
        type            processor;
        value           nonuniform List<scalar> 5(1.18785e-09 9.96896e-09 4.68893e-08 1.24543e-07 1.81351e-07);
    }
    procBoundary2to3
    {
        type            processor;
        value           nonuniform List<scalar> 5(2.15718e-07 2.14456e-07 2.04901e-07 1.92044e-07 1.72294e-07);
    }
}


// ************************************************************************* //
