/*--------------------------------*- C++ -*----------------------------------*\
  =========                 |
  \\      /  F ield         | OpenFOAM: The Open Source CFD Toolbox
   \\    /   O peration     | Website:  https://openfoam.org
    \\  /    A nd           | Version:  8
     \\/     M anipulation  |
\*---------------------------------------------------------------------------*/
FoamFile
{
    version     2.0;
    format      ascii;
    class       volScalarField;
    location    "0.15";
    object      NH2;
}
// * * * * * * * * * * * * * * * * * * * * * * * * * * * * * * * * * * * * * //

dimensions      [0 0 0 0 0 0 0];

internalField   nonuniform List<scalar> 
25
(
8.26396e-13
6.61413e-12
2.90519e-11
2.17154e-10
2.16134e-09
8.22146e-13
6.57448e-12
2.88133e-11
2.14201e-10
2.12018e-09
8.18124e-13
6.53733e-12
2.83148e-11
2.10522e-10
2.07791e-09
8.07277e-13
6.43172e-12
2.76936e-11
2.0618e-10
2.00003e-09
7.99951e-13
6.36573e-12
2.72529e-11
2.04906e-10
1.87387e-09
)
;

boundaryField
{
    fuel
    {
        type            fixedValue;
        value           uniform 0;
    }
    air
    {
        type            fixedValue;
        value           nonuniform List<scalar> 0();
    }
    outlet
    {
        type            inletOutlet;
        inletValue      uniform 0;
        value           nonuniform List<scalar> 5(7.99951e-13 6.36573e-12 2.72529e-11 2.04906e-10 1.87387e-09);
    }
    frontAndBack
    {
        type            empty;
    }
    procBoundary2to0
    {
        type            processor;
        value           nonuniform List<scalar> 5(8.26442e-13 6.61441e-12 2.9067e-11 2.17807e-10 2.1671e-09);
    }
    procBoundary2to3
    {
        type            processor;
        value           nonuniform List<scalar> 5(1.18745e-08 1.16347e-08 1.14975e-08 1.11795e-08 1.04617e-08);
    }
}


// ************************************************************************* //
