/*--------------------------------*- C++ -*----------------------------------*\
  =========                 |
  \\      /  F ield         | OpenFOAM: The Open Source CFD Toolbox
   \\    /   O peration     | Website:  https://openfoam.org
    \\  /    A nd           | Version:  8
     \\/     M anipulation  |
\*---------------------------------------------------------------------------*/
FoamFile
{
    version     2.0;
    format      ascii;
    class       volScalarField;
    location    "0.15";
    object      NH3;
}
// * * * * * * * * * * * * * * * * * * * * * * * * * * * * * * * * * * * * * //

dimensions      [0 0 0 0 0 0 0];

internalField   nonuniform List<scalar> 
25
(
1.91453e-08
1.55806e-07
6.77478e-07
1.61756e-06
2.18632e-06
1.90365e-08
1.55305e-07
6.78943e-07
1.62645e-06
2.19609e-06
1.90406e-08
1.56309e-07
6.85675e-07
1.64301e-06
2.217e-06
1.89238e-08
1.56136e-07
6.91565e-07
1.66764e-06
2.25099e-06
1.88958e-08
1.57024e-07
7.03607e-07
1.70634e-06
2.28918e-06
)
;

boundaryField
{
    fuel
    {
        type            fixedValue;
        value           uniform 0;
    }
    air
    {
        type            fixedValue;
        value           nonuniform List<scalar> 0();
    }
    outlet
    {
        type            inletOutlet;
        inletValue      uniform 0;
        value           nonuniform List<scalar> 5(1.88958e-08 1.57024e-07 7.03607e-07 1.70634e-06 2.28918e-06);
    }
    frontAndBack
    {
        type            empty;
    }
    procBoundary2to0
    {
        type            processor;
        value           nonuniform List<scalar> 5(1.9146e-08 1.55811e-07 6.77496e-07 1.61761e-06 2.18632e-06);
    }
    procBoundary2to3
    {
        type            processor;
        value           nonuniform List<scalar> 5(2.40871e-06 2.41847e-06 2.44477e-06 2.50074e-06 2.57415e-06);
    }
}


// ************************************************************************* //
