/*--------------------------------*- C++ -*----------------------------------*\
  =========                 |
  \\      /  F ield         | OpenFOAM: The Open Source CFD Toolbox
   \\    /   O peration     | Website:  https://openfoam.org
    \\  /    A nd           | Version:  8
     \\/     M anipulation  |
\*---------------------------------------------------------------------------*/
FoamFile
{
    version     2.0;
    format      ascii;
    class       volScalarField;
    location    "0.15";
    object      NO;
}
// * * * * * * * * * * * * * * * * * * * * * * * * * * * * * * * * * * * * * //

dimensions      [0 0 0 0 0 0 0];

internalField   nonuniform List<scalar> 
25
(
3.01019e-08
2.042e-07
7.65199e-07
2.02454e-06
2.9243e-06
3.00583e-08
2.04037e-07
7.67973e-07
2.0349e-06
2.93029e-06
3.02323e-08
2.06047e-07
7.77345e-07
2.0545e-06
2.94811e-06
3.02674e-08
2.06735e-07
7.86827e-07
2.08674e-06
2.99202e-06
3.03939e-08
2.08628e-07
8.03269e-07
2.13892e-06
3.03645e-06
)
;

boundaryField
{
    fuel
    {
        type            fixedValue;
        value           uniform 0;
    }
    air
    {
        type            fixedValue;
        value           nonuniform List<scalar> 0();
    }
    outlet
    {
        type            inletOutlet;
        inletValue      uniform 0;
        value           nonuniform List<scalar> 5(3.03939e-08 2.08628e-07 8.03269e-07 2.13892e-06 3.03645e-06);
    }
    frontAndBack
    {
        type            empty;
    }
    procBoundary2to0
    {
        type            processor;
        value           nonuniform List<scalar> 5(3.01026e-08 2.04198e-07 7.65141e-07 2.02447e-06 2.92439e-06);
    }
    procBoundary2to3
    {
        type            processor;
        value           nonuniform List<scalar> 5(3.28956e-06 3.28549e-06 3.29366e-06 3.33817e-06 3.40726e-06);
    }
}


// ************************************************************************* //
