/*--------------------------------*- C++ -*----------------------------------*\
  =========                 |
  \\      /  F ield         | OpenFOAM: The Open Source CFD Toolbox
   \\    /   O peration     | Website:  https://openfoam.org
    \\  /    A nd           | Version:  8
     \\/     M anipulation  |
\*---------------------------------------------------------------------------*/
FoamFile
{
    version     2.0;
    format      ascii;
    class       volScalarField;
    location    "0.15";
    object      O2;
}
// * * * * * * * * * * * * * * * * * * * * * * * * * * * * * * * * * * * * * //

dimensions      [0 0 0 0 0 0 0];

internalField   nonuniform List<scalar> 
25
(
0.000140621
0.00122821
0.00595091
0.0158203
0.0227433
0.000140151
0.00122257
0.0059339
0.0157728
0.0225827
0.0001406
0.00122659
0.00593611
0.0156619
0.0222105
0.000140076
0.00121938
0.00590907
0.0155063
0.02162
0.000140133
0.00122049
0.00593514
0.0154717
0.0209569
)
;

boundaryField
{
    fuel
    {
        type            fixedValue;
        value           uniform 0;
    }
    air
    {
        type            fixedValue;
        value           nonuniform List<scalar> 0();
    }
    outlet
    {
        type            inletOutlet;
        inletValue      uniform 0;
        value           nonuniform List<scalar> 5(0.000140133 0.00122049 0.00593514 0.0154717 0.0209569);
    }
    frontAndBack
    {
        type            empty;
    }
    procBoundary2to0
    {
        type            processor;
        value           nonuniform List<scalar> 5(0.000140622 0.0012282 0.00595068 0.0158194 0.0227423);
    }
    procBoundary2to3
    {
        type            processor;
        value           nonuniform List<scalar> 5(0.0265525 0.0263248 0.0257253 0.0246063 0.0230755);
    }
}


// ************************************************************************* //
