/*--------------------------------*- C++ -*----------------------------------*\
  =========                 |
  \\      /  F ield         | OpenFOAM: The Open Source CFD Toolbox
   \\    /   O peration     | Website:  https://openfoam.org
    \\  /    A nd           | Version:  8
     \\/     M anipulation  |
\*---------------------------------------------------------------------------*/
FoamFile
{
    version     2.0;
    format      ascii;
    class       volVectorField;
    location    "0.15";
    object      U;
}
// * * * * * * * * * * * * * * * * * * * * * * * * * * * * * * * * * * * * * //

dimensions      [0 1 -1 0 0 0 0];

internalField   nonuniform List<vector> 
25
(
(0.100131 0.00777083 0)
(0.0898597 0.0201827 0)
(0.0574136 0.0300264 0)
(0.00419694 0.0381733 -6.25191e-29)
(-0.112217 0.0407341 0)
(0.0995165 0.0235061 0)
(0.0920574 0.0574907 0)
(0.0567958 0.0867216 0)
(0.00294622 0.112407 0)
(-0.111934 0.121081 0)
(0.0991676 0.038295 0)
(0.0908675 0.101086 0)
(0.0545824 0.154906 0)
(0.00149549 0.193499 0)
(-0.109696 0.202099 0)
(0.0997862 0.0541825 0)
(0.092684 0.13075 0)
(0.0545856 0.198141 0)
(-0.00150982 0.25282 0)
(-0.108314 0.269938 0)
(0.0991839 0.0735033 0)
(0.0909677 0.199864 0)
(0.0483091 0.302269 0)
(-0.0161584 0.372545 0)
(-0.10958 0.357449 0)
)
;

boundaryField
{
    fuel
    {
        type            fixedValue;
        value           uniform (0.1 0 0);
    }
    air
    {
        type            fixedValue;
        value           nonuniform List<vector> 0();
    }
    outlet
    {
        type            pressureInletOutletVelocity;
        value           nonuniform List<vector> 5((0.0991839 0.0735033 0) (0.0909677 0.199864 0) (0.0483091 0.302269 0) (-0.0161584 0.372545 0) (-0.10958 0.357449 0));
    }
    frontAndBack
    {
        type            empty;
    }
    procBoundary2to0
    {
        type            processor;
        value           nonuniform List<vector> 5((0.100131 -0.0077718 0) (0.0898601 -0.0201815 0) (0.0574146 -0.0300278 0) (0.00419977 -0.0381845 0) (-0.112208 -0.0407729 0));
    }
    procBoundary2to3
    {
        type            processor;
        value           nonuniform List<vector> 5((-0.200613 0.0390551 0) (-0.199114 0.116746 0) (-0.194536 0.194703 0) (-0.185346 0.261839 0) (-0.168053 0.341245 0));
    }
}


// ************************************************************************* //
