/*--------------------------------*- C++ -*----------------------------------*\
  =========                 |
  \\      /  F ield         | OpenFOAM: The Open Source CFD Toolbox
   \\    /   O peration     | Website:  https://openfoam.org
    \\  /    A nd           | Version:  8
     \\/     M anipulation  |
\*---------------------------------------------------------------------------*/
FoamFile
{
    version     2.0;
    format      ascii;
    class       volScalarField;
    location    "0.1";
    object      CH2CHO;
}
// * * * * * * * * * * * * * * * * * * * * * * * * * * * * * * * * * * * * * //

dimensions      [0 0 0 0 0 0 0];

internalField   nonuniform List<scalar> 
25
(
9.8674e-09
1.01916e-09
8.24628e-11
4.40242e-12
9.32314e-14
6.50528e-09
6.95344e-10
6.0972e-11
3.65839e-12
7.86292e-14
4.52618e-09
4.8747e-10
4.49589e-11
3.05469e-12
6.79086e-14
3.79133e-09
4.02774e-10
3.72319e-11
2.72987e-12
6.15597e-14
3.53754e-09
3.73805e-10
3.46312e-11
2.60094e-12
5.87507e-14
)
;

boundaryField
{
    fuel
    {
        type            fixedValue;
        value           nonuniform List<scalar> 0();
    }
    air
    {
        type            fixedValue;
        value           uniform 0;
    }
    outlet
    {
        type            inletOutlet;
        inletValue      uniform 0;
        value           nonuniform List<scalar> 5(9.8674e-09 1.01916e-09 8.24628e-11 4.40242e-12 9.32314e-14);
    }
    frontAndBack
    {
        type            empty;
    }
    procBoundary1to0
    {
        type            processor;
        value           nonuniform List<scalar> 5(4.91576e-09 4.37298e-09 3.95083e-09 3.74933e-09 3.67184e-09);
    }
    procBoundary1to3
    {
        type            processor;
        value           nonuniform List<scalar> 5(3.5604e-09 3.7523e-10 3.46853e-11 2.6022e-12 5.87815e-14);
    }
}


// ************************************************************************* //
