/*--------------------------------*- C++ -*----------------------------------*\
  =========                 |
  \\      /  F ield         | OpenFOAM: The Open Source CFD Toolbox
   \\    /   O peration     | Website:  https://openfoam.org
    \\  /    A nd           | Version:  8
     \\/     M anipulation  |
\*---------------------------------------------------------------------------*/
FoamFile
{
    version     2.0;
    format      ascii;
    class       volScalarField;
    location    "0.1";
    object      CH2O;
}
// * * * * * * * * * * * * * * * * * * * * * * * * * * * * * * * * * * * * * //

dimensions      [0 0 0 0 0 0 0];

internalField   nonuniform List<scalar> 
25
(
2.78971e-05
1.11035e-05
3.95392e-05
6.68242e-06
7.14492e-07
2.40448e-05
1.00803e-05
3.50383e-05
6.17402e-06
6.75915e-07
2.13346e-05
9.17378e-06
3.16755e-05
5.8114e-06
6.49286e-07
1.97517e-05
8.57743e-06
2.95402e-05
5.54456e-06
6.29296e-07
1.92992e-05
8.32504e-06
2.86916e-05
5.39856e-06
6.18686e-07
)
;

boundaryField
{
    fuel
    {
        type            fixedValue;
        value           nonuniform List<scalar> 0();
    }
    air
    {
        type            fixedValue;
        value           uniform 0;
    }
    outlet
    {
        type            inletOutlet;
        inletValue      uniform 0;
        value           nonuniform List<scalar> 5(2.78971e-05 1.11035e-05 3.95392e-05 6.68242e-06 7.14492e-07);
    }
    frontAndBack
    {
        type            empty;
    }
    procBoundary1to0
    {
        type            processor;
        value           nonuniform List<scalar> 5(5.02147e-05 4.92236e-05 4.83802e-05 4.77593e-05 4.73926e-05);
    }
    procBoundary1to3
    {
        type            processor;
        value           nonuniform List<scalar> 5(1.96343e-05 8.35186e-06 2.86864e-05 5.39933e-06 6.18823e-07);
    }
}


// ************************************************************************* //
