/*--------------------------------*- C++ -*----------------------------------*\
  =========                 |
  \\      /  F ield         | OpenFOAM: The Open Source CFD Toolbox
   \\    /   O peration     | Website:  https://openfoam.org
    \\  /    A nd           | Version:  8
     \\/     M anipulation  |
\*---------------------------------------------------------------------------*/
FoamFile
{
    version     2.0;
    format      ascii;
    class       volScalarField;
    location    "0.1";
    object      HCCO;
}
// * * * * * * * * * * * * * * * * * * * * * * * * * * * * * * * * * * * * * //

dimensions      [0 0 0 0 0 0 0];

internalField   nonuniform List<scalar> 
25
(
3.14941e-06
3.38473e-07
1.66905e-08
2.83328e-10
2.31434e-12
2.79373e-06
2.96142e-07
1.42223e-08
2.37747e-10
1.93244e-12
2.44469e-06
2.56571e-07
1.21109e-08
2.01164e-10
1.63544e-12
2.20843e-06
2.30993e-07
1.07644e-08
1.77829e-10
1.44468e-12
2.13924e-06
2.23005e-07
1.03318e-08
1.69871e-10
1.37659e-12
)
;

boundaryField
{
    fuel
    {
        type            fixedValue;
        value           nonuniform List<scalar> 0();
    }
    air
    {
        type            fixedValue;
        value           uniform 0;
    }
    outlet
    {
        type            inletOutlet;
        inletValue      uniform 0;
        value           nonuniform List<scalar> 5(3.14941e-06 3.38473e-07 1.66905e-08 2.83328e-10 2.31434e-12);
    }
    frontAndBack
    {
        type            empty;
    }
    procBoundary1to0
    {
        type            processor;
        value           nonuniform List<scalar> 5(5.33225e-07 4.85951e-07 4.36285e-07 4.01437e-07 3.89724e-07);
    }
    procBoundary1to3
    {
        type            processor;
        value           nonuniform List<scalar> 5(2.18065e-06 2.26384e-07 1.0475e-08 1.7215e-10 1.39463e-12);
    }
}


// ************************************************************************* //
