/*--------------------------------*- C++ -*----------------------------------*\
  =========                 |
  \\      /  F ield         | OpenFOAM: The Open Source CFD Toolbox
   \\    /   O peration     | Website:  https://openfoam.org
    \\  /    A nd           | Version:  8
     \\/     M anipulation  |
\*---------------------------------------------------------------------------*/
FoamFile
{
    version     2.0;
    format      ascii;
    class       volScalarField;
    location    "0.1";
    object      HNCO;
}
// * * * * * * * * * * * * * * * * * * * * * * * * * * * * * * * * * * * * * //

dimensions      [0 0 0 0 0 0 0];

internalField   nonuniform List<scalar> 
25
(
1.06608e-06
1.23469e-07
5.20694e-08
1.31142e-08
1.41129e-09
9.06869e-07
1.05716e-07
4.7951e-08
1.30795e-08
1.50921e-09
7.83336e-07
9.15556e-08
4.4896e-08
1.33948e-08
1.6598e-09
7.20962e-07
8.41471e-08
4.31807e-08
1.37163e-08
1.79834e-09
7.00486e-07
8.16306e-08
4.26425e-08
1.39208e-08
1.88965e-09
)
;

boundaryField
{
    fuel
    {
        type            fixedValue;
        value           nonuniform List<scalar> 0();
    }
    air
    {
        type            fixedValue;
        value           uniform 0;
    }
    outlet
    {
        type            inletOutlet;
        inletValue      uniform 0;
        value           nonuniform List<scalar> 5(1.06608e-06 1.23469e-07 5.20694e-08 1.31142e-08 1.41129e-09);
    }
    frontAndBack
    {
        type            empty;
    }
    procBoundary1to0
    {
        type            processor;
        value           nonuniform List<scalar> 5(1.11123e-06 1.03634e-06 9.67049e-07 9.26444e-07 9.09784e-07);
    }
    procBoundary1to3
    {
        type            processor;
        value           nonuniform List<scalar> 5(7.01912e-07 8.17535e-08 4.26464e-08 1.39198e-08 1.88931e-09);
    }
}


// ************************************************************************* //
