/*--------------------------------*- C++ -*----------------------------------*\
  =========                 |
  \\      /  F ield         | OpenFOAM: The Open Source CFD Toolbox
   \\    /   O peration     | Website:  https://openfoam.org
    \\  /    A nd           | Version:  8
     \\/     M anipulation  |
\*---------------------------------------------------------------------------*/
FoamFile
{
    version     2.0;
    format      ascii;
    class       volScalarField;
    location    "0.1";
    object      HOCN;
}
// * * * * * * * * * * * * * * * * * * * * * * * * * * * * * * * * * * * * * //

dimensions      [0 0 0 0 0 0 0];

internalField   nonuniform List<scalar> 
25
(
1.51464e-09
1.8629e-10
9.20537e-11
3.89873e-11
7.5411e-12
1.57847e-09
1.89285e-10
9.29295e-11
4.03716e-11
8.15204e-12
1.6701e-09
1.95798e-10
9.52113e-11
4.2534e-11
8.93303e-12
1.74284e-09
2.0193e-10
9.70187e-11
4.41602e-11
9.56899e-12
1.77275e-09
2.05046e-10
9.82701e-11
4.50308e-11
9.97133e-12
)
;

boundaryField
{
    fuel
    {
        type            fixedValue;
        value           nonuniform List<scalar> 0();
    }
    air
    {
        type            fixedValue;
        value           uniform 0;
    }
    outlet
    {
        type            inletOutlet;
        inletValue      uniform 0;
        value           nonuniform List<scalar> 5(1.51464e-09 1.8629e-10 9.20537e-11 3.89873e-11 7.5411e-12);
    }
    frontAndBack
    {
        type            empty;
    }
    procBoundary1to0
    {
        type            processor;
        value           nonuniform List<scalar> 5(1.07751e-09 1.10539e-09 1.14203e-09 1.17153e-09 1.18558e-09);
    }
    procBoundary1to3
    {
        type            processor;
        value           nonuniform List<scalar> 5(1.77497e-09 2.05223e-10 9.82547e-11 4.50035e-11 9.96321e-12);
    }
}


// ************************************************************************* //
