/*--------------------------------*- C++ -*----------------------------------*\
  =========                 |
  \\      /  F ield         | OpenFOAM: The Open Source CFD Toolbox
   \\    /   O peration     | Website:  https://openfoam.org
    \\  /    A nd           | Version:  8
     \\/     M anipulation  |
\*---------------------------------------------------------------------------*/
FoamFile
{
    version     2.0;
    format      ascii;
    class       volScalarField;
    location    "0.1";
    object      NCO;
}
// * * * * * * * * * * * * * * * * * * * * * * * * * * * * * * * * * * * * * //

dimensions      [0 0 0 0 0 0 0];

internalField   nonuniform List<scalar> 
25
(
3.34506e-10
3.91999e-11
1.40751e-11
9.6484e-13
6.17928e-14
3.08235e-10
3.63489e-11
1.40916e-11
9.31808e-13
5.88705e-14
2.83995e-10
3.36688e-11
1.40837e-11
9.04121e-13
5.56446e-14
2.70814e-10
3.25914e-11
1.42056e-11
8.8595e-13
5.28984e-14
2.66105e-10
3.22522e-11
1.42657e-11
8.76311e-13
5.11143e-14
)
;

boundaryField
{
    fuel
    {
        type            fixedValue;
        value           nonuniform List<scalar> 0();
    }
    air
    {
        type            fixedValue;
        value           uniform 0;
    }
    outlet
    {
        type            inletOutlet;
        inletValue      uniform 0;
        value           nonuniform List<scalar> 5(3.34506e-10 3.91999e-11 1.40751e-11 9.6484e-13 6.17928e-14);
    }
    frontAndBack
    {
        type            empty;
    }
    procBoundary1to0
    {
        type            processor;
        value           nonuniform List<scalar> 5(5.75727e-11 5.43757e-11 5.1233e-11 4.94353e-11 4.86907e-11);
    }
    procBoundary1to3
    {
        type            processor;
        value           nonuniform List<scalar> 5(2.67096e-10 3.23311e-11 1.42676e-11 8.76252e-13 5.11336e-14);
    }
}


// ************************************************************************* //
