/*--------------------------------*- C++ -*----------------------------------*\
  =========                 |
  \\      /  F ield         | OpenFOAM: The Open Source CFD Toolbox
   \\    /   O peration     | Website:  https://openfoam.org
    \\  /    A nd           | Version:  8
     \\/     M anipulation  |
\*---------------------------------------------------------------------------*/
FoamFile
{
    version     2.0;
    format      ascii;
    class       volScalarField;
    location    "0.1";
    object      NH;
}
// * * * * * * * * * * * * * * * * * * * * * * * * * * * * * * * * * * * * * //

dimensions      [0 0 0 0 0 0 0];

internalField   nonuniform List<scalar> 
25
(
5.20908e-10
6.67326e-11
3.36485e-12
6.05735e-14
7.04313e-16
5.61033e-10
6.68753e-11
3.25535e-12
5.82095e-14
6.75699e-16
5.90313e-10
6.67521e-11
3.16813e-12
5.6538e-14
6.63718e-16
5.83347e-10
6.52515e-11
3.05079e-12
5.45537e-14
6.52808e-16
5.86231e-10
6.53687e-11
3.03898e-12
5.43122e-14
6.56533e-16
)
;

boundaryField
{
    fuel
    {
        type            fixedValue;
        value           nonuniform List<scalar> 0();
    }
    air
    {
        type            fixedValue;
        value           uniform 0;
    }
    outlet
    {
        type            inletOutlet;
        inletValue      uniform 0;
        value           nonuniform List<scalar> 5(5.20908e-10 6.67326e-11 3.36485e-12 6.05735e-14 7.04313e-16);
    }
    frontAndBack
    {
        type            empty;
    }
    procBoundary1to0
    {
        type            processor;
        value           nonuniform List<scalar> 5(1.0106e-10 1.12573e-10 1.20417e-10 1.21458e-10 1.21834e-10);
    }
    procBoundary1to3
    {
        type            processor;
        value           nonuniform List<scalar> 5(6.14428e-10 6.76795e-11 3.13698e-12 5.58697e-14 6.68797e-16);
    }
}


// ************************************************************************* //
