/*--------------------------------*- C++ -*----------------------------------*\
  =========                 |
  \\      /  F ield         | OpenFOAM: The Open Source CFD Toolbox
   \\    /   O peration     | Website:  https://openfoam.org
    \\  /    A nd           | Version:  8
     \\/     M anipulation  |
\*---------------------------------------------------------------------------*/
FoamFile
{
    version     2.0;
    format      ascii;
    class       volScalarField;
    location    "0.1";
    object      NH3;
}
// * * * * * * * * * * * * * * * * * * * * * * * * * * * * * * * * * * * * * //

dimensions      [0 0 0 0 0 0 0];

internalField   nonuniform List<scalar> 
25
(
3.81776e-06
4.41564e-07
1.31241e-07
1.97999e-08
1.46748e-09
3.72877e-06
4.22216e-07
1.27053e-07
2.01232e-08
1.58419e-09
3.6315e-06
4.05029e-07
1.24723e-07
2.0986e-08
1.76285e-09
3.56837e-06
3.94689e-07
1.23216e-07
2.17241e-08
1.92718e-09
3.54115e-06
3.9093e-07
1.23123e-07
2.22003e-08
2.03875e-09
)
;

boundaryField
{
    fuel
    {
        type            fixedValue;
        value           nonuniform List<scalar> 0();
    }
    air
    {
        type            fixedValue;
        value           uniform 0;
    }
    outlet
    {
        type            inletOutlet;
        inletValue      uniform 0;
        value           nonuniform List<scalar> 5(3.81776e-06 4.41564e-07 1.31241e-07 1.97999e-08 1.46748e-09);
    }
    frontAndBack
    {
        type            empty;
    }
    procBoundary1to0
    {
        type            processor;
        value           nonuniform List<scalar> 5(3.30527e-06 3.29343e-06 3.28185e-06 3.27562e-06 3.27495e-06);
    }
    procBoundary1to3
    {
        type            processor;
        value           nonuniform List<scalar> 5(3.53629e-06 3.90526e-07 1.23115e-07 2.21994e-08 2.0385e-09);
    }
}


// ************************************************************************* //
