/*--------------------------------*- C++ -*----------------------------------*\
  =========                 |
  \\      /  F ield         | OpenFOAM: The Open Source CFD Toolbox
   \\    /   O peration     | Website:  https://openfoam.org
    \\  /    A nd           | Version:  8
     \\/     M anipulation  |
\*---------------------------------------------------------------------------*/
FoamFile
{
    version     2.0;
    format      ascii;
    class       volScalarField;
    location    "0.05";
    object      C;
}
// * * * * * * * * * * * * * * * * * * * * * * * * * * * * * * * * * * * * * //

dimensions      [0 0 0 0 0 0 0];

internalField   nonuniform List<scalar> 
25
(
2.65163e-17
8.92356e-18
6.62235e-19
1.46579e-20
1.22837e-22
1.48879e-16
3.87711e-17
2.61573e-18
5.55562e-20
4.62818e-22
1.01981e-15
1.9377e-16
1.1582e-17
2.34223e-19
1.92078e-21
7.95445e-15
9.74651e-16
5.01116e-17
9.53227e-19
7.63519e-21
4.49195e-14
3.7676e-15
1.69042e-16
3.05362e-18
2.39798e-20
)
;

boundaryField
{
    fuel
    {
        type            fixedValue;
        value           nonuniform List<scalar> 0();
    }
    air
    {
        type            fixedValue;
        value           uniform 0;
    }
    outlet
    {
        type            inletOutlet;
        inletValue      uniform 0;
        value           nonuniform List<scalar> 5(2.65163e-17 8.92356e-18 6.62235e-19 1.46579e-20 1.22837e-22);
    }
    frontAndBack
    {
        type            empty;
    }
    procBoundary1to0
    {
        type            processor;
        value           nonuniform List<scalar> 5(8.94313e-18 4.40813e-17 2.39793e-16 1.30362e-15 5.40327e-15);
    }
    procBoundary1to3
    {
        type            processor;
        value           nonuniform List<scalar> 5(4.4916e-14 3.76732e-15 1.69027e-16 3.05329e-18 2.39771e-20);
    }
}


// ************************************************************************* //
