/*--------------------------------*- C++ -*----------------------------------*\
  =========                 |
  \\      /  F ield         | OpenFOAM: The Open Source CFD Toolbox
   \\    /   O peration     | Website:  https://openfoam.org
    \\  /    A nd           | Version:  8
     \\/     M anipulation  |
\*---------------------------------------------------------------------------*/
FoamFile
{
    version     2.0;
    format      ascii;
    class       volScalarField;
    location    "0.05";
    object      C2H;
}
// * * * * * * * * * * * * * * * * * * * * * * * * * * * * * * * * * * * * * //

dimensions      [0 0 0 0 0 0 0];

internalField   nonuniform List<scalar> 
25
(
4.75056e-11
6.18892e-12
3.56624e-13
6.98774e-15
5.62335e-17
1.27031e-10
1.5984e-11
8.75676e-13
1.69323e-14
1.36542e-16
4.32565e-10
4.87658e-11
2.49928e-12
4.72488e-14
3.78036e-16
1.50151e-09
1.4246e-10
6.75525e-12
1.23966e-13
9.78623e-16
3.40881e-09
2.91727e-10
1.32655e-11
2.40338e-13
1.89006e-15
)
;

boundaryField
{
    fuel
    {
        type            fixedValue;
        value           nonuniform List<scalar> 0();
    }
    air
    {
        type            fixedValue;
        value           uniform 0;
    }
    outlet
    {
        type            inletOutlet;
        inletValue      uniform 0;
        value           nonuniform List<scalar> 5(4.75056e-11 6.18892e-12 3.56624e-13 6.98774e-15 5.62335e-17);
    }
    frontAndBack
    {
        type            empty;
    }
    procBoundary1to0
    {
        type            processor;
        value           nonuniform List<scalar> 5(7.40298e-12 2.05799e-11 6.56171e-11 1.99331e-10 4.18393e-10);
    }
    procBoundary1to3
    {
        type            processor;
        value           nonuniform List<scalar> 5(3.40858e-09 2.91709e-10 1.32644e-11 2.40313e-13 1.88985e-15);
    }
}


// ************************************************************************* //
