/*--------------------------------*- C++ -*----------------------------------*\
  =========                 |
  \\      /  F ield         | OpenFOAM: The Open Source CFD Toolbox
   \\    /   O peration     | Website:  https://openfoam.org
    \\  /    A nd           | Version:  8
     \\/     M anipulation  |
\*---------------------------------------------------------------------------*/
FoamFile
{
    version     2.0;
    format      ascii;
    class       volScalarField;
    location    "0.05";
    object      CH2CHO;
}
// * * * * * * * * * * * * * * * * * * * * * * * * * * * * * * * * * * * * * //

dimensions      [0 0 0 0 0 0 0];

internalField   nonuniform List<scalar> 
25
(
3.37344e-09
4.73284e-10
6.26631e-10
2.96029e-11
3.74157e-13
7.69591e-09
9.55647e-10
7.85098e-10
3.15246e-11
4.05513e-13
2.09644e-08
2.25801e-09
1.2005e-09
3.83438e-11
4.8676e-13
5.19479e-08
4.8819e-09
1.85023e-09
4.95833e-11
6.00707e-13
7.87364e-08
7.17211e-09
2.41853e-09
6.02206e-11
6.9877e-13
)
;

boundaryField
{
    fuel
    {
        type            fixedValue;
        value           nonuniform List<scalar> 0();
    }
    air
    {
        type            fixedValue;
        value           uniform 0;
    }
    outlet
    {
        type            inletOutlet;
        inletValue      uniform 0;
        value           nonuniform List<scalar> 5(3.37344e-09 4.73284e-10 6.26631e-10 2.96029e-11 3.74157e-13);
    }
    frontAndBack
    {
        type            empty;
    }
    procBoundary1to0
    {
        type            processor;
        value           nonuniform List<scalar> 5(7.69872e-10 1.51227e-09 3.33036e-09 7.05174e-09 1.15547e-08);
    }
    procBoundary1to3
    {
        type            processor;
        value           nonuniform List<scalar> 5(7.87298e-08 7.17147e-09 2.41756e-09 6.02024e-11 6.98604e-13);
    }
}


// ************************************************************************* //
