/*--------------------------------*- C++ -*----------------------------------*\
  =========                 |
  \\      /  F ield         | OpenFOAM: The Open Source CFD Toolbox
   \\    /   O peration     | Website:  https://openfoam.org
    \\  /    A nd           | Version:  8
     \\/     M anipulation  |
\*---------------------------------------------------------------------------*/
FoamFile
{
    version     2.0;
    format      ascii;
    class       volScalarField;
    location    "0.05";
    object      CH2OH;
}
// * * * * * * * * * * * * * * * * * * * * * * * * * * * * * * * * * * * * * //

dimensions      [0 0 0 0 0 0 0];

internalField   nonuniform List<scalar> 
25
(
2.60456e-10
3.3964e-11
3.41785e-12
8.7285e-14
1.58404e-15
7.12282e-10
8.69239e-11
6.12267e-12
1.35744e-13
2.03931e-15
2.38087e-09
2.54174e-10
1.44545e-11
2.8729e-13
3.39536e-15
7.31533e-09
6.67519e-10
3.33764e-11
6.25015e-13
6.22304e-15
1.3248e-08
1.14382e-09
5.50049e-11
1.01455e-12
9.45465e-15
)
;

boundaryField
{
    fuel
    {
        type            fixedValue;
        value           nonuniform List<scalar> 0();
    }
    air
    {
        type            fixedValue;
        value           uniform 0;
    }
    outlet
    {
        type            inletOutlet;
        inletValue      uniform 0;
        value           nonuniform List<scalar> 5(2.60456e-10 3.3964e-11 3.41785e-12 8.7285e-14 1.58404e-15);
    }
    frontAndBack
    {
        type            empty;
    }
    procBoundary1to0
    {
        type            processor;
        value           nonuniform List<scalar> 5(3.73836e-11 1.07285e-10 3.36238e-10 9.27343e-10 1.62704e-09);
    }
    procBoundary1to3
    {
        type            processor;
        value           nonuniform List<scalar> 5(1.32467e-08 1.14372e-09 5.49982e-11 1.01441e-12 9.45302e-15);
    }
}


// ************************************************************************* //
