/*--------------------------------*- C++ -*----------------------------------*\
  =========                 |
  \\      /  F ield         | OpenFOAM: The Open Source CFD Toolbox
   \\    /   O peration     | Website:  https://openfoam.org
    \\  /    A nd           | Version:  8
     \\/     M anipulation  |
\*---------------------------------------------------------------------------*/
FoamFile
{
    version     2.0;
    format      ascii;
    class       volScalarField;
    location    "0.05";
    object      CN;
}
// * * * * * * * * * * * * * * * * * * * * * * * * * * * * * * * * * * * * * //

dimensions      [0 0 0 0 0 0 0];

internalField   nonuniform List<scalar> 
25
(
2.44663e-13
1.12227e-13
5.43638e-15
9.86683e-17
7.72264e-19
6.0302e-13
1.73321e-13
8.08603e-15
1.4521e-16
1.13999e-18
1.87813e-12
2.39709e-13
1.19764e-14
2.22559e-16
1.76963e-18
5.84858e-12
5.5188e-13
2.61645e-14
4.78483e-16
3.77192e-18
1.16234e-11
1.02346e-12
4.68666e-14
8.49725e-16
6.68461e-18
)
;

boundaryField
{
    fuel
    {
        type            fixedValue;
        value           nonuniform List<scalar> 0();
    }
    air
    {
        type            fixedValue;
        value           uniform 0;
    }
    outlet
    {
        type            inletOutlet;
        inletValue      uniform 0;
        value           nonuniform List<scalar> 5(2.44663e-13 1.12227e-13 5.43638e-15 9.86683e-17 7.72264e-19);
    }
    frontAndBack
    {
        type            empty;
    }
    procBoundary1to0
    {
        type            processor;
        value           nonuniform List<scalar> 5(3.6913e-14 9.46909e-14 2.77805e-13 7.68917e-13 1.44151e-12);
    }
    procBoundary1to3
    {
        type            processor;
        value           nonuniform List<scalar> 5(1.16182e-11 1.02304e-12 4.68472e-14 8.49363e-16 6.68174e-18);
    }
}


// ************************************************************************* //
