/*--------------------------------*- C++ -*----------------------------------*\
  =========                 |
  \\      /  F ield         | OpenFOAM: The Open Source CFD Toolbox
   \\    /   O peration     | Website:  https://openfoam.org
    \\  /    A nd           | Version:  8
     \\/     M anipulation  |
\*---------------------------------------------------------------------------*/
FoamFile
{
    version     2.0;
    format      ascii;
    class       volScalarField;
    location    "0.05";
    object      CO;
}
// * * * * * * * * * * * * * * * * * * * * * * * * * * * * * * * * * * * * * //

dimensions      [0 0 0 0 0 0 0];

internalField   nonuniform List<scalar> 
25
(
0.00331781
0.00103477
0.00059929
0.000132212
1.11563e-05
0.00456872
0.0012005
0.000699909
0.000158846
1.38503e-05
0.00698504
0.00146397
0.000873004
0.000200847
1.78656e-05
0.0107382
0.00188845
0.00108095
0.000244458
2.16634e-05
0.0138709
0.00227729
0.00124156
0.000275008
2.42661e-05
)
;

boundaryField
{
    fuel
    {
        type            fixedValue;
        value           nonuniform List<scalar> 0();
    }
    air
    {
        type            fixedValue;
        value           uniform 0;
    }
    outlet
    {
        type            inletOutlet;
        inletValue      uniform 0;
        value           nonuniform List<scalar> 5(0.00331781 0.00103477 0.00059929 0.000132212 1.11563e-05);
    }
    frontAndBack
    {
        type            empty;
    }
    procBoundary1to0
    {
        type            processor;
        value           nonuniform List<scalar> 5(0.00353633 0.00475986 0.00643366 0.00853802 0.0101262);
    }
    procBoundary1to3
    {
        type            processor;
        value           nonuniform List<scalar> 5(0.0138709 0.00227712 0.00124148 0.000274994 2.42652e-05);
    }
}


// ************************************************************************* //
