/*--------------------------------*- C++ -*----------------------------------*\
  =========                 |
  \\      /  F ield         | OpenFOAM: The Open Source CFD Toolbox
   \\    /   O peration     | Website:  https://openfoam.org
    \\  /    A nd           | Version:  8
     \\/     M anipulation  |
\*---------------------------------------------------------------------------*/
FoamFile
{
    version     2.0;
    format      ascii;
    class       volScalarField;
    location    "0.05";
    object      CO2;
}
// * * * * * * * * * * * * * * * * * * * * * * * * * * * * * * * * * * * * * //

dimensions      [0 0 0 0 0 0 0];

internalField   nonuniform List<scalar> 
25
(
0.0327765
0.0548387
0.0132433
0.00171954
9.67269e-05
0.0350231
0.0561054
0.0136791
0.00183284
0.00010891
0.0375545
0.0581869
0.0144521
0.00202225
0.000127609
0.0398189
0.0601802
0.015211
0.00219959
0.000145174
0.0411946
0.0613586
0.0157106
0.00232117
0.000157904
)
;

boundaryField
{
    fuel
    {
        type            fixedValue;
        value           nonuniform List<scalar> 0();
    }
    air
    {
        type            fixedValue;
        value           uniform 0;
    }
    outlet
    {
        type            inletOutlet;
        inletValue      uniform 0;
        value           nonuniform List<scalar> 5(0.0327765 0.0548387 0.0132433 0.00171954 9.67269e-05);
    }
    frontAndBack
    {
        type            empty;
    }
    procBoundary1to0
    {
        type            processor;
        value           nonuniform List<scalar> 5(0.0161204 0.017981 0.019799 0.0214258 0.022414);
    }
    procBoundary1to3
    {
        type            processor;
        value           nonuniform List<scalar> 5(0.0411943 0.061358 0.0157102 0.00232108 0.000157897);
    }
}


// ************************************************************************* //
