/*--------------------------------*- C++ -*----------------------------------*\
  =========                 |
  \\      /  F ield         | OpenFOAM: The Open Source CFD Toolbox
   \\    /   O peration     | Website:  https://openfoam.org
    \\  /    A nd           | Version:  8
     \\/     M anipulation  |
\*---------------------------------------------------------------------------*/
FoamFile
{
    version     2.0;
    format      ascii;
    class       volScalarField;
    location    "0.05";
    object      H;
}
// * * * * * * * * * * * * * * * * * * * * * * * * * * * * * * * * * * * * * //

dimensions      [0 0 0 0 0 0 0];

internalField   nonuniform List<scalar> 
25
(
3.47271e-07
2.50653e-06
1.08997e-07
1.90284e-09
1.46864e-11
3.86277e-07
2.33795e-06
1.03984e-07
1.83292e-09
1.42938e-11
4.96202e-07
2.57781e-06
1.16121e-07
2.0726e-09
1.62346e-11
7.0023e-07
2.93345e-06
1.33943e-07
2.41723e-09
1.89645e-11
9.22288e-07
3.20991e-06
1.48082e-07
2.69873e-09
2.12959e-11
)
;

boundaryField
{
    fuel
    {
        type            fixedValue;
        value           nonuniform List<scalar> 0();
    }
    air
    {
        type            fixedValue;
        value           uniform 0;
    }
    outlet
    {
        type            inletOutlet;
        inletValue      uniform 0;
        value           nonuniform List<scalar> 5(3.47271e-07 2.50653e-06 1.08997e-07 1.90284e-09 1.46864e-11);
    }
    frontAndBack
    {
        type            empty;
    }
    procBoundary1to0
    {
        type            processor;
        value           nonuniform List<scalar> 5(3.50844e-08 4.43395e-08 6.15412e-08 8.9309e-08 1.1684e-07);
    }
    procBoundary1to3
    {
        type            processor;
        value           nonuniform List<scalar> 5(9.22188e-07 3.20936e-06 1.48056e-07 2.69821e-09 2.12916e-11);
    }
}


// ************************************************************************* //
