/*--------------------------------*- C++ -*----------------------------------*\
  =========                 |
  \\      /  F ield         | OpenFOAM: The Open Source CFD Toolbox
   \\    /   O peration     | Website:  https://openfoam.org
    \\  /    A nd           | Version:  8
     \\/     M anipulation  |
\*---------------------------------------------------------------------------*/
FoamFile
{
    version     2.0;
    format      ascii;
    class       volScalarField;
    location    "0.05";
    object      H2CN;
}
// * * * * * * * * * * * * * * * * * * * * * * * * * * * * * * * * * * * * * //

dimensions      [0 0 0 0 0 0 0];

internalField   nonuniform List<scalar> 
25
(
6.40623e-13
8.79506e-14
1.74276e-13
1.28656e-12
5.87783e-14
1.08913e-12
1.37255e-13
2.19603e-13
1.6541e-12
8.13123e-14
2.11002e-12
2.40251e-13
2.99396e-13
2.30515e-12
1.20529e-13
3.84093e-12
3.99317e-13
4.00567e-13
3.10648e-12
1.6891e-13
5.2095e-12
5.26851e-13
4.83153e-13
3.75107e-12
2.07696e-13
)
;

boundaryField
{
    fuel
    {
        type            fixedValue;
        value           nonuniform List<scalar> 0();
    }
    air
    {
        type            fixedValue;
        value           uniform 0;
    }
    outlet
    {
        type            inletOutlet;
        inletValue      uniform 0;
        value           nonuniform List<scalar> 5(6.40623e-13 8.79506e-14 1.74276e-13 1.28656e-12 5.87783e-14);
    }
    frontAndBack
    {
        type            empty;
    }
    procBoundary1to0
    {
        type            processor;
        value           nonuniform List<scalar> 5(1.82841e-13 2.79391e-13 4.5651e-13 7.21427e-13 8.61232e-13);
    }
    procBoundary1to3
    {
        type            processor;
        value           nonuniform List<scalar> 5(5.20782e-12 5.26646e-13 4.82665e-13 3.74711e-12 2.07455e-13);
    }
}


// ************************************************************************* //
