/*--------------------------------*- C++ -*----------------------------------*\
  =========                 |
  \\      /  F ield         | OpenFOAM: The Open Source CFD Toolbox
   \\    /   O peration     | Website:  https://openfoam.org
    \\  /    A nd           | Version:  8
     \\/     M anipulation  |
\*---------------------------------------------------------------------------*/
FoamFile
{
    version     2.0;
    format      ascii;
    class       volScalarField;
    location    "0.05";
    object      HCN;
}
// * * * * * * * * * * * * * * * * * * * * * * * * * * * * * * * * * * * * * //

dimensions      [0 0 0 0 0 0 0];

internalField   nonuniform List<scalar> 
25
(
4.81918e-06
4.71799e-07
4.3092e-07
1.35722e-07
1.44085e-08
5.27128e-06
5.21102e-07
4.72719e-07
1.53355e-07
1.75408e-08
5.9932e-06
6.00146e-07
5.32053e-07
1.78099e-07
2.19468e-08
6.8815e-06
6.93803e-07
5.89179e-07
2.00072e-07
2.60688e-08
7.55522e-06
7.63344e-07
6.27108e-07
2.14531e-07
2.91108e-08
)
;

boundaryField
{
    fuel
    {
        type            fixedValue;
        value           nonuniform List<scalar> 0();
    }
    air
    {
        type            fixedValue;
        value           uniform 0;
    }
    outlet
    {
        type            inletOutlet;
        inletValue      uniform 0;
        value           nonuniform List<scalar> 5(4.81918e-06 4.71799e-07 4.3092e-07 1.35722e-07 1.44085e-08);
    }
    frontAndBack
    {
        type            empty;
    }
    procBoundary1to0
    {
        type            processor;
        value           nonuniform List<scalar> 5(8.48842e-06 9.53426e-06 1.06507e-05 1.17636e-05 1.24959e-05);
    }
    procBoundary1to3
    {
        type            processor;
        value           nonuniform List<scalar> 5(7.55208e-06 7.63007e-07 6.26708e-07 2.14337e-07 2.90769e-08);
    }
}


// ************************************************************************* //
