/*--------------------------------*- C++ -*----------------------------------*\
  =========                 |
  \\      /  F ield         | OpenFOAM: The Open Source CFD Toolbox
   \\    /   O peration     | Website:  https://openfoam.org
    \\  /    A nd           | Version:  8
     \\/     M anipulation  |
\*---------------------------------------------------------------------------*/
FoamFile
{
    version     2.0;
    format      ascii;
    class       volScalarField;
    location    "0.05";
    object      HNCO;
}
// * * * * * * * * * * * * * * * * * * * * * * * * * * * * * * * * * * * * * //

dimensions      [0 0 0 0 0 0 0];

internalField   nonuniform List<scalar> 
25
(
7.37129e-07
7.88298e-08
7.81199e-08
2.14529e-08
1.92449e-09
9.88839e-07
1.05993e-07
9.71569e-08
2.64223e-08
2.42944e-09
1.49648e-06
1.55554e-07
1.27975e-07
3.39247e-08
3.14708e-09
2.35951e-06
2.33939e-07
1.64943e-07
4.15922e-08
3.79113e-09
3.16018e-06
3.05337e-07
1.93395e-07
4.69857e-08
4.23386e-09
)
;

boundaryField
{
    fuel
    {
        type            fixedValue;
        value           nonuniform List<scalar> 0();
    }
    air
    {
        type            fixedValue;
        value           uniform 0;
    }
    outlet
    {
        type            inletOutlet;
        inletValue      uniform 0;
        value           nonuniform List<scalar> 5(7.37129e-07 7.88298e-08 7.81199e-08 2.14529e-08 1.92449e-09);
    }
    frontAndBack
    {
        type            empty;
    }
    procBoundary1to0
    {
        type            processor;
        value           nonuniform List<scalar> 5(9.29534e-07 1.19736e-06 1.57185e-06 2.06463e-06 2.47006e-06);
    }
    procBoundary1to3
    {
        type            processor;
        value           nonuniform List<scalar> 5(3.15945e-06 3.05261e-07 1.93321e-07 4.69601e-08 4.23102e-09);
    }
}


// ************************************************************************* //
