/*--------------------------------*- C++ -*----------------------------------*\
  =========                 |
  \\      /  F ield         | OpenFOAM: The Open Source CFD Toolbox
   \\    /   O peration     | Website:  https://openfoam.org
    \\  /    A nd           | Version:  8
     \\/     M anipulation  |
\*---------------------------------------------------------------------------*/
FoamFile
{
    version     2.0;
    format      ascii;
    class       volScalarField;
    location    "0.05";
    object      NH;
}
// * * * * * * * * * * * * * * * * * * * * * * * * * * * * * * * * * * * * * //

dimensions      [0 0 0 0 0 0 0];

internalField   nonuniform List<scalar> 
25
(
2.44487e-11
5.59623e-11
2.65012e-12
7.59432e-14
1.76811e-15
4.32667e-11
5.89039e-11
2.82554e-12
7.99181e-14
2.08898e-15
9.50112e-11
6.60499e-11
3.27168e-12
9.12239e-14
2.69779e-15
2.1248e-10
8.1983e-11
4.14084e-12
1.11962e-13
3.51021e-15
3.40425e-10
9.97256e-11
5.08443e-12
1.3475e-13
4.24098e-15
)
;

boundaryField
{
    fuel
    {
        type            fixedValue;
        value           nonuniform List<scalar> 0();
    }
    air
    {
        type            fixedValue;
        value           uniform 0;
    }
    outlet
    {
        type            inletOutlet;
        inletValue      uniform 0;
        value           nonuniform List<scalar> 5(2.44487e-11 5.59623e-11 2.65012e-12 7.59432e-14 1.76811e-15);
    }
    frontAndBack
    {
        type            empty;
    }
    procBoundary1to0
    {
        type            processor;
        value           nonuniform List<scalar> 5(6.72495e-12 1.15045e-11 2.15091e-11 3.98815e-11 5.40026e-11);
    }
    procBoundary1to3
    {
        type            processor;
        value           nonuniform List<scalar> 5(3.40331e-10 9.97066e-11 5.08315e-12 1.34699e-13 4.23814e-15);
    }
}


// ************************************************************************* //
