/*--------------------------------*- C++ -*----------------------------------*\
  =========                 |
  \\      /  F ield         | OpenFOAM: The Open Source CFD Toolbox
   \\    /   O peration     | Website:  https://openfoam.org
    \\  /    A nd           | Version:  8
     \\/     M anipulation  |
\*---------------------------------------------------------------------------*/
FoamFile
{
    version     2.0;
    format      ascii;
    class       volScalarField;
    location    "0.05";
    object      NH2;
}
// * * * * * * * * * * * * * * * * * * * * * * * * * * * * * * * * * * * * * //

dimensions      [0 0 0 0 0 0 0];

internalField   nonuniform List<scalar> 
25
(
2.4982e-10
2.74241e-10
1.74641e-09
3.99083e-10
3.02918e-11
4.67287e-10
3.30258e-10
1.89201e-09
4.86479e-10
3.97684e-11
1.07189e-09
4.16703e-10
2.04628e-09
6.17501e-10
5.36749e-11
2.56378e-09
5.70483e-10
2.18265e-09
7.51194e-10
6.69759e-11
4.49875e-09
7.51844e-10
2.32284e-09
8.49312e-10
7.64707e-11
)
;

boundaryField
{
    fuel
    {
        type            fixedValue;
        value           nonuniform List<scalar> 0();
    }
    air
    {
        type            fixedValue;
        value           uniform 0;
    }
    outlet
    {
        type            inletOutlet;
        inletValue      uniform 0;
        value           nonuniform List<scalar> 5(2.4982e-10 2.74241e-10 1.74641e-09 3.99083e-10 3.02918e-11);
    }
    frontAndBack
    {
        type            empty;
    }
    procBoundary1to0
    {
        type            processor;
        value           nonuniform List<scalar> 5(4.46185e-11 7.92384e-11 1.65969e-10 3.55602e-10 5.85018e-10);
    }
    procBoundary1to3
    {
        type            processor;
        value           nonuniform List<scalar> 5(4.49751e-09 7.51619e-10 2.32212e-09 8.48874e-10 7.64237e-11);
    }
}


// ************************************************************************* //
