/*--------------------------------*- C++ -*----------------------------------*\
  =========                 |
  \\      /  F ield         | OpenFOAM: The Open Source CFD Toolbox
   \\    /   O peration     | Website:  https://openfoam.org
    \\  /    A nd           | Version:  8
     \\/     M anipulation  |
\*---------------------------------------------------------------------------*/
FoamFile
{
    version     2.0;
    format      ascii;
    class       volScalarField;
    location    "0.1";
    object      C2H4;
}
// * * * * * * * * * * * * * * * * * * * * * * * * * * * * * * * * * * * * * //

dimensions      [0 0 0 0 0 0 0];

internalField   nonuniform List<scalar> 
25
(
0.000407898
4.77606e-05
2.59825e-05
8.42311e-06
1.02513e-06
0.000423594
5.00674e-05
2.71539e-05
8.71502e-06
1.03895e-06
0.000495005
5.82374e-05
2.98517e-05
9.16965e-06
1.04946e-06
0.000634033
7.37367e-05
3.4196e-05
9.76338e-06
1.05398e-06
0.000831199
9.43359e-05
3.94729e-05
1.05416e-05
1.07345e-06
)
;

boundaryField
{
    fuel
    {
        type            fixedValue;
        value           nonuniform List<scalar> 0();
    }
    air
    {
        type            fixedValue;
        value           uniform 0;
    }
    outlet
    {
        type            inletOutlet;
        inletValue      uniform 0;
        value           nonuniform List<scalar> 5(0.000831199 9.43359e-05 3.94729e-05 1.05416e-05 1.07345e-06);
    }
    frontAndBack
    {
        type            empty;
    }
    procBoundary3to1
    {
        type            processor;
        value           nonuniform List<scalar> 5(0.000400559 4.71571e-05 2.59639e-05 8.42212e-06 1.02502e-06);
    }
    procBoundary3to2
    {
        type            processor;
        value           nonuniform List<scalar> 5(0.000774948 0.00079826 0.000852853 0.000945974 0.00105023);
    }
}


// ************************************************************************* //
