/*--------------------------------*- C++ -*----------------------------------*\
  =========                 |
  \\      /  F ield         | OpenFOAM: The Open Source CFD Toolbox
   \\    /   O peration     | Website:  https://openfoam.org
    \\  /    A nd           | Version:  8
     \\/     M anipulation  |
\*---------------------------------------------------------------------------*/
FoamFile
{
    version     2.0;
    format      ascii;
    class       volScalarField;
    location    "0.1";
    object      CH2CO;
}
// * * * * * * * * * * * * * * * * * * * * * * * * * * * * * * * * * * * * * //

dimensions      [0 0 0 0 0 0 0];

internalField   nonuniform List<scalar> 
25
(
0.000129226
1.43729e-05
5.07414e-06
1.45825e-06
1.77308e-07
0.000130246
1.46998e-05
5.25196e-06
1.49834e-06
1.7832e-07
0.000147488
1.65932e-05
5.68582e-06
1.56017e-06
1.77782e-07
0.00017551
1.97971e-05
6.37673e-06
1.63666e-06
1.75143e-07
0.000213281
2.38926e-05
7.22233e-06
1.74034e-06
1.74838e-07
)
;

boundaryField
{
    fuel
    {
        type            fixedValue;
        value           nonuniform List<scalar> 0();
    }
    air
    {
        type            fixedValue;
        value           uniform 0;
    }
    outlet
    {
        type            inletOutlet;
        inletValue      uniform 0;
        value           nonuniform List<scalar> 5(0.000213281 2.38926e-05 7.22233e-06 1.74034e-06 1.74838e-07);
    }
    frontAndBack
    {
        type            empty;
    }
    procBoundary3to1
    {
        type            processor;
        value           nonuniform List<scalar> 5(0.00012418 1.39599e-05 5.06258e-06 1.45808e-06 1.77281e-07);
    }
    procBoundary3to2
    {
        type            processor;
        value           nonuniform List<scalar> 5(0.000185073 0.000189658 0.000200729 0.000219004 0.000239153);
    }
}


// ************************************************************************* //
