/*--------------------------------*- C++ -*----------------------------------*\
  =========                 |
  \\      /  F ield         | OpenFOAM: The Open Source CFD Toolbox
   \\    /   O peration     | Website:  https://openfoam.org
    \\  /    A nd           | Version:  8
     \\/     M anipulation  |
\*---------------------------------------------------------------------------*/
FoamFile
{
    version     2.0;
    format      ascii;
    class       volScalarField;
    location    "0.1";
    object      CH3;
}
// * * * * * * * * * * * * * * * * * * * * * * * * * * * * * * * * * * * * * //

dimensions      [0 0 0 0 0 0 0];

internalField   nonuniform List<scalar> 
25
(
0.000186261
1.92715e-05
8.94829e-07
1.9922e-08
5.80379e-10
0.000184676
1.93052e-05
9.04136e-07
2.03516e-08
5.96558e-10
0.000195321
2.04965e-05
9.73533e-07
2.19766e-08
6.34723e-10
0.000208089
2.22037e-05
1.07686e-06
2.44913e-08
6.96163e-10
0.000223467
2.42575e-05
1.21318e-06
2.80699e-08
7.76788e-10
)
;

boundaryField
{
    fuel
    {
        type            fixedValue;
        value           nonuniform List<scalar> 0();
    }
    air
    {
        type            fixedValue;
        value           uniform 0;
    }
    outlet
    {
        type            inletOutlet;
        inletValue      uniform 0;
        value           nonuniform List<scalar> 5(0.000223467 2.42575e-05 1.21318e-06 2.80699e-08 7.76788e-10);
    }
    frontAndBack
    {
        type            empty;
    }
    procBoundary3to1
    {
        type            processor;
        value           nonuniform List<scalar> 5(0.000180512 1.87996e-05 8.74789e-07 1.96031e-08 5.78727e-10);
    }
    procBoundary3to2
    {
        type            processor;
        value           nonuniform List<scalar> 5(4.36265e-05 4.34962e-05 4.47368e-05 4.62473e-05 4.79587e-05);
    }
}


// ************************************************************************* //
