/*--------------------------------*- C++ -*----------------------------------*\
  =========                 |
  \\      /  F ield         | OpenFOAM: The Open Source CFD Toolbox
   \\    /   O peration     | Website:  https://openfoam.org
    \\  /    A nd           | Version:  8
     \\/     M anipulation  |
\*---------------------------------------------------------------------------*/
FoamFile
{
    version     2.0;
    format      ascii;
    class       volScalarField;
    location    "0.1";
    object      CH4;
}
// * * * * * * * * * * * * * * * * * * * * * * * * * * * * * * * * * * * * * //

dimensions      [0 0 0 0 0 0 0];

internalField   nonuniform List<scalar> 
25
(
0.022239
0.00245395
0.000765076
0.000156266
1.57199e-05
0.0223968
0.00248118
0.000778538
0.00016054
1.61451e-05
0.0230677
0.00257914
0.000812627
0.000167929
1.68884e-05
0.0243164
0.00275819
0.000864066
0.000178
1.7881e-05
0.0259827
0.00298807
0.000929474
0.000191517
1.91176e-05
)
;

boundaryField
{
    fuel
    {
        type            fixedValue;
        value           nonuniform List<scalar> 0();
    }
    air
    {
        type            fixedValue;
        value           uniform 0;
    }
    outlet
    {
        type            inletOutlet;
        inletValue      uniform 0;
        value           nonuniform List<scalar> 5(0.0259827 0.00298807 0.000929474 0.000191517 1.91176e-05);
    }
    frontAndBack
    {
        type            empty;
    }
    procBoundary3to1
    {
        type            processor;
        value           nonuniform List<scalar> 5(0.0222046 0.00245129 0.000764945 0.000156255 1.57185e-05);
    }
    procBoundary3to2
    {
        type            processor;
        value           nonuniform List<scalar> 5(0.143232 0.14345 0.144306 0.145631 0.146732);
    }
}


// ************************************************************************* //
