/*--------------------------------*- C++ -*----------------------------------*\
  =========                 |
  \\      /  F ield         | OpenFOAM: The Open Source CFD Toolbox
   \\    /   O peration     | Website:  https://openfoam.org
    \\  /    A nd           | Version:  8
     \\/     M anipulation  |
\*---------------------------------------------------------------------------*/
FoamFile
{
    version     2.0;
    format      ascii;
    class       volScalarField;
    location    "0.1";
    object      H2CN;
}
// * * * * * * * * * * * * * * * * * * * * * * * * * * * * * * * * * * * * * //

dimensions      [0 0 0 0 0 0 0];

internalField   nonuniform List<scalar> 
25
(
5.77791e-12
6.24536e-13
1.43084e-13
7.82866e-13
1.17399e-13
5.76005e-12
6.22494e-13
1.37591e-13
7.43779e-13
1.07317e-13
5.67409e-12
6.18156e-13
1.29516e-13
6.90959e-13
9.41466e-14
5.46268e-12
6.07713e-13
1.22564e-13
6.42143e-13
8.18044e-14
5.15434e-12
5.93638e-13
1.17666e-13
6.29142e-13
7.46513e-14
)
;

boundaryField
{
    fuel
    {
        type            fixedValue;
        value           nonuniform List<scalar> 0();
    }
    air
    {
        type            fixedValue;
        value           uniform 0;
    }
    outlet
    {
        type            inletOutlet;
        inletValue      uniform 0;
        value           nonuniform List<scalar> 5(5.15434e-12 5.93638e-13 1.17666e-13 6.29142e-13 7.46513e-14);
    }
    frontAndBack
    {
        type            empty;
    }
    procBoundary3to1
    {
        type            processor;
        value           nonuniform List<scalar> 5(5.79672e-12 6.26133e-13 1.43218e-13 7.83395e-13 1.175e-13);
    }
    procBoundary3to2
    {
        type            processor;
        value           nonuniform List<scalar> 5(2.85465e-12 2.81738e-12 2.74049e-12 2.63226e-12 2.49301e-12);
    }
}


// ************************************************************************* //
