/*--------------------------------*- C++ -*----------------------------------*\
  =========                 |
  \\      /  F ield         | OpenFOAM: The Open Source CFD Toolbox
   \\    /   O peration     | Website:  https://openfoam.org
    \\  /    A nd           | Version:  8
     \\/     M anipulation  |
\*---------------------------------------------------------------------------*/
FoamFile
{
    version     2.0;
    format      ascii;
    class       volScalarField;
    location    "0.1";
    object      HCCO;
}
// * * * * * * * * * * * * * * * * * * * * * * * * * * * * * * * * * * * * * //

dimensions      [0 0 0 0 0 0 0];

internalField   nonuniform List<scalar> 
25
(
2.18065e-06
2.26384e-07
1.0475e-08
1.7215e-10
1.39463e-12
2.2179e-06
2.32184e-07
1.08245e-08
1.78858e-10
1.45332e-12
2.44793e-06
2.57048e-07
1.21385e-08
2.01666e-10
1.63964e-12
2.79739e-06
2.96667e-07
1.425e-08
2.38232e-10
1.93648e-12
3.16972e-06
3.40357e-07
1.67766e-08
2.84735e-10
2.32568e-12
)
;

boundaryField
{
    fuel
    {
        type            fixedValue;
        value           nonuniform List<scalar> 0();
    }
    air
    {
        type            fixedValue;
        value           uniform 0;
    }
    outlet
    {
        type            inletOutlet;
        inletValue      uniform 0;
        value           nonuniform List<scalar> 5(3.16972e-06 3.40357e-07 1.67766e-08 2.84735e-10 2.32568e-12);
    }
    frontAndBack
    {
        type            empty;
    }
    procBoundary3to1
    {
        type            processor;
        value           nonuniform List<scalar> 5(2.13924e-06 2.23005e-07 1.03318e-08 1.69871e-10 1.37659e-12);
    }
    procBoundary3to2
    {
        type            processor;
        value           nonuniform List<scalar> 5(3.95527e-07 4.03388e-07 4.36987e-07 4.86688e-07 5.36003e-07);
    }
}


// ************************************************************************* //
