/*--------------------------------*- C++ -*----------------------------------*\
  =========                 |
  \\      /  F ield         | OpenFOAM: The Open Source CFD Toolbox
   \\    /   O peration     | Website:  https://openfoam.org
    \\  /    A nd           | Version:  8
     \\/     M anipulation  |
\*---------------------------------------------------------------------------*/
FoamFile
{
    version     2.0;
    format      ascii;
    class       volScalarField;
    location    "0.1";
    object      HO2;
}
// * * * * * * * * * * * * * * * * * * * * * * * * * * * * * * * * * * * * * //

dimensions      [0 0 0 0 0 0 0];

internalField   nonuniform List<scalar> 
25
(
1.33171e-06
4.53041e-06
1.61396e-05
1.75628e-06
1.40173e-07
1.34663e-06
4.57435e-06
1.63002e-05
1.78444e-06
1.41292e-07
1.39481e-06
4.66451e-06
1.67666e-05
1.84391e-06
1.43709e-07
1.47118e-06
4.80983e-06
1.76465e-05
1.93483e-06
1.47464e-07
1.55572e-06
4.99482e-06
1.91103e-05
2.07502e-06
1.54142e-07
)
;

boundaryField
{
    fuel
    {
        type            fixedValue;
        value           nonuniform List<scalar> 0();
    }
    air
    {
        type            fixedValue;
        value           uniform 0;
    }
    outlet
    {
        type            inletOutlet;
        inletValue      uniform 0;
        value           nonuniform List<scalar> 5(1.55572e-06 4.99482e-06 1.91103e-05 2.07502e-06 1.54142e-07);
    }
    frontAndBack
    {
        type            empty;
    }
    procBoundary3to1
    {
        type            processor;
        value           nonuniform List<scalar> 5(1.32576e-06 4.52957e-06 1.61392e-05 1.75623e-06 1.40151e-07);
    }
    procBoundary3to2
    {
        type            processor;
        value           nonuniform List<scalar> 5(6.72673e-07 6.77371e-07 6.85233e-07 6.97119e-07 7.09443e-07);
    }
}


// ************************************************************************* //
