/*--------------------------------*- C++ -*----------------------------------*\
  =========                 |
  \\      /  F ield         | OpenFOAM: The Open Source CFD Toolbox
   \\    /   O peration     | Website:  https://openfoam.org
    \\  /    A nd           | Version:  8
     \\/     M anipulation  |
\*---------------------------------------------------------------------------*/
FoamFile
{
    version     2.0;
    format      ascii;
    class       volScalarField;
    location    "0.1";
    object      N2O;
}
// * * * * * * * * * * * * * * * * * * * * * * * * * * * * * * * * * * * * * //

dimensions      [0 0 0 0 0 0 0];

internalField   nonuniform List<scalar> 
25
(
1.87777e-07
7.05128e-07
2.0154e-07
3.76557e-08
4.37046e-09
1.85283e-07
6.95296e-07
2.00537e-07
3.78292e-08
4.34425e-09
1.7847e-07
6.64727e-07
1.97312e-07
3.77159e-08
4.2863e-09
1.66103e-07
6.07269e-07
1.89746e-07
3.71274e-08
4.19405e-09
1.52876e-07
5.46478e-07
1.82985e-07
3.70441e-08
4.15716e-09
)
;

boundaryField
{
    fuel
    {
        type            fixedValue;
        value           nonuniform List<scalar> 0();
    }
    air
    {
        type            fixedValue;
        value           uniform 0;
    }
    outlet
    {
        type            inletOutlet;
        inletValue      uniform 0;
        value           nonuniform List<scalar> 5(1.52876e-07 5.46478e-07 1.82985e-07 3.70441e-08 4.15716e-09);
    }
    frontAndBack
    {
        type            empty;
    }
    procBoundary3to1
    {
        type            processor;
        value           nonuniform List<scalar> 5(1.87458e-07 7.05155e-07 2.01519e-07 3.76609e-08 4.37163e-09);
    }
    procBoundary3to2
    {
        type            processor;
        value           nonuniform List<scalar> 5(1.62518e-07 1.61683e-07 1.59088e-07 1.54616e-07 1.50049e-07);
    }
}


// ************************************************************************* //
