/*--------------------------------*- C++ -*----------------------------------*\
  =========                 |
  \\      /  F ield         | OpenFOAM: The Open Source CFD Toolbox
   \\    /   O peration     | Website:  https://openfoam.org
    \\  /    A nd           | Version:  8
     \\/     M anipulation  |
\*---------------------------------------------------------------------------*/
FoamFile
{
    version     2.0;
    format      ascii;
    class       volScalarField;
    location    "0.1";
    object      NH2;
}
// * * * * * * * * * * * * * * * * * * * * * * * * * * * * * * * * * * * * * //

dimensions      [0 0 0 0 0 0 0];

internalField   nonuniform List<scalar> 
25
(
1.39238e-08
1.70187e-09
1.26975e-09
3.04971e-10
3.02252e-11
1.35118e-08
1.66917e-09
1.24545e-09
2.96938e-10
2.85863e-11
1.35255e-08
1.66632e-09
1.19418e-09
2.82976e-10
2.60626e-11
1.29655e-08
1.62834e-09
1.13625e-09
2.66167e-10
2.32176e-11
1.2286e-08
1.58387e-09
1.06644e-09
2.55364e-10
2.118e-11
)
;

boundaryField
{
    fuel
    {
        type            fixedValue;
        value           nonuniform List<scalar> 0();
    }
    air
    {
        type            fixedValue;
        value           uniform 0;
    }
    outlet
    {
        type            inletOutlet;
        inletValue      uniform 0;
        value           nonuniform List<scalar> 5(1.2286e-08 1.58387e-09 1.06644e-09 2.55364e-10 2.118e-11);
    }
    frontAndBack
    {
        type            empty;
    }
    procBoundary3to1
    {
        type            processor;
        value           nonuniform List<scalar> 5(1.33999e-08 1.6589e-09 1.26829e-09 3.05014e-10 3.02335e-11);
    }
    procBoundary3to2
    {
        type            processor;
        value           nonuniform List<scalar> 5(2.50168e-09 2.44231e-09 2.41313e-09 2.30137e-09 2.17085e-09);
    }
}


// ************************************************************************* //
