/*--------------------------------*- C++ -*----------------------------------*\
  =========                 |
  \\      /  F ield         | OpenFOAM: The Open Source CFD Toolbox
   \\    /   O peration     | Website:  https://openfoam.org
    \\  /    A nd           | Version:  8
     \\/     M anipulation  |
\*---------------------------------------------------------------------------*/
FoamFile
{
    version     2.0;
    format      ascii;
    class       volScalarField;
    location    "0.1";
    object      OH;
}
// * * * * * * * * * * * * * * * * * * * * * * * * * * * * * * * * * * * * * //

dimensions      [0 0 0 0 0 0 0];

internalField   nonuniform List<scalar> 
25
(
0.000101634
0.000396006
1.83304e-05
3.06113e-07
5.5684e-09
0.000103156
0.000403606
1.88006e-05
3.15338e-07
5.7213e-09
0.000107775
0.000429782
2.03201e-05
3.42521e-07
6.14159e-09
0.000113797
0.000470466
2.27122e-05
3.85235e-07
6.82991e-09
0.000121102
0.000537759
2.65359e-05
4.54853e-07
7.86352e-09
)
;

boundaryField
{
    fuel
    {
        type            fixedValue;
        value           nonuniform List<scalar> 0();
    }
    air
    {
        type            fixedValue;
        value           uniform 0;
    }
    outlet
    {
        type            inletOutlet;
        inletValue      uniform 0;
        value           nonuniform List<scalar> 5(0.000121102 0.000537759 2.65359e-05 4.54853e-07 7.86352e-09);
    }
    frontAndBack
    {
        type            empty;
    }
    procBoundary3to1
    {
        type            processor;
        value           nonuniform List<scalar> 5(0.00010134 0.000395938 1.83271e-05 3.06056e-07 5.56897e-09);
    }
    procBoundary3to2
    {
        type            processor;
        value           nonuniform List<scalar> 5(1.8157e-05 1.83979e-05 1.89937e-05 1.97302e-05 2.05352e-05);
    }
}


// ************************************************************************* //
