/*--------------------------------*- C++ -*----------------------------------*\
  =========                 |
  \\      /  F ield         | OpenFOAM: The Open Source CFD Toolbox
   \\    /   O peration     | Website:  https://openfoam.org
    \\  /    A nd           | Version:  8
     \\/     M anipulation  |
\*---------------------------------------------------------------------------*/
FoamFile
{
    version     2.0;
    format      ascii;
    class       surfaceScalarField;
    location    "0.1";
    object      phi;
}
// * * * * * * * * * * * * * * * * * * * * * * * * * * * * * * * * * * * * * //

dimensions      [1 0 -1 0 0 0 0];

internalField   nonuniform List<scalar> 
40
(
-1.71469e-06
5.66855e-07
-2.29881e-06
5.60488e-07
-3.2481e-06
8.46088e-07
-4.31155e-06
8.88519e-07
3.65439e-07
-1.71107e-06
1.13659e-06
-2.2999e-06
1.1277e-06
-3.22157e-06
1.67046e-06
-4.24246e-06
1.74327e-06
8.01919e-07
-1.67324e-06
1.69032e-06
-2.24344e-06
1.67916e-06
-3.1189e-06
2.46135e-06
-4.21087e-06
2.68102e-06
1.27228e-06
-1.57538e-06
2.18618e-06
-2.12058e-06
2.20951e-06
-3.05193e-06
3.32079e-06
-4.22278e-06
3.70913e-06
1.73305e-06
-1.36823e-06
-1.89418e-06
-2.86693e-06
-4.0997e-06
)
;

boundaryField
{
    fuel
    {
        type            calculated;
        value           nonuniform List<scalar> 0();
    }
    air
    {
        type            calculated;
        value           nonuniform List<scalar> 5(-4.73529e-06 -4.73529e-06 -4.73529e-06 -4.73529e-06 -4.73529e-06);
    }
    outlet
    {
        type            calculated;
        value           nonuniform List<scalar> 5(2.52566e-06 2.72341e-06 4.23105e-06 4.80825e-06 2.31833e-06);
    }
    frontAndBack
    {
        type            empty;
        value           nonuniform List<scalar> 0();
    }
    procBoundary3to1
    {
        type            processor;
        value           nonuniform List<scalar> 5(-5.34071e-10 -2.58448e-10 -1.46962e-10 -4.48269e-11 -5.79369e-12);
    }
    procBoundary3to2
    {
        type            processor;
        value           nonuniform List<scalar> 5(1.15849e-06 1.15573e-06 1.13196e-06 1.09427e-06 1.04729e-06);
    }
}


// ************************************************************************* //
