/*--------------------------------*- C++ -*----------------------------------*\
  =========                 |
  \\      /  F ield         | OpenFOAM: The Open Source CFD Toolbox
   \\    /   O peration     | Website:  https://openfoam.org
    \\  /    A nd           | Version:  8
     \\/     M anipulation  |
\*---------------------------------------------------------------------------*/
FoamFile
{
    version     2.0;
    format      ascii;
    class       volVectorField;
    location    "0.1";
    object      U;
}
// * * * * * * * * * * * * * * * * * * * * * * * * * * * * * * * * * * * * * //

dimensions      [0 1 -1 0 0 0 0];

internalField   nonuniform List<vector> 
25
(
(-0.189415 0.0380466 0)
(-0.187744 0.031985 3.60233e-29)
(-0.119541 0.0223968 0)
(-0.102012 0.0135574 -2.37837e-29)
(-0.101671 0.0036628 0)
(-0.188425 0.114015 0)
(-0.188114 0.096477 0)
(-0.11778 0.067112 0)
(-0.0997314 0.0358467 0)
(-0.102586 0.0129728 0)
(-0.184544 0.190398 0)
(-0.186135 0.163976 0)
(-0.113959 0.113655 0)
(-0.0996613 0.0626419 0)
(-0.102554 0.022448 0)
(-0.176183 0.256131 0)
(-0.178108 0.224824 0)
(-0.111679 0.150418 0)
(-0.100565 0.0841757 0)
(-0.102636 0.03283 0)
(-0.159928 0.334942 0)
(-0.160188 0.320814 0)
(-0.106972 0.234863 0)
(-0.098781 0.133728 0)
(-0.101837 0.0492042 0)
)
;

boundaryField
{
    fuel
    {
        type            fixedValue;
        value           nonuniform List<vector> 0();
    }
    air
    {
        type            fixedValue;
        value           uniform (-0.1 0 0);
    }
    outlet
    {
        type            pressureInletOutletVelocity;
        value           nonuniform List<vector> 5((-0.159928 0.334942 0) (-0.160188 0.320814 0) (-0.106972 0.234863 0) (-0.098781 0.133728 0) (-0.101837 0.0492042 0));
    }
    frontAndBack
    {
        type            empty;
    }
    procBoundary3to1
    {
        type            processor;
        value           nonuniform List<vector> 5((-0.189414 -0.0380227 0) (-0.187721 -0.0319637 3.60228e-29) (-0.119534 -0.0223873 0) (-0.10201 -0.0135561 -2.37832e-29) (-0.10167 -0.00366291 0));
    }
    procBoundary3to2
    {
        type            processor;
        value           nonuniform List<vector> 5((-0.100056 0.0392948 0) (-0.0998758 0.11701 0) (-0.0973578 0.195911 0) (-0.096019 0.261776 0) (-0.0970689 0.35073 0));
    }
}


// ************************************************************************* //
