/*--------------------------------*- C++ -*----------------------------------*\
  =========                 |
  \\      /  F ield         | OpenFOAM: The Open Source CFD Toolbox
   \\    /   O peration     | Website:  https://openfoam.org
    \\  /    A nd           | Version:  8
     \\/     M anipulation  |
\*---------------------------------------------------------------------------*/
FoamFile
{
    version     2.0;
    format      ascii;
    class       volScalarField;
    location    "0.2";
    object      CH2;
}
// * * * * * * * * * * * * * * * * * * * * * * * * * * * * * * * * * * * * * //

dimensions      [0 0 0 0 0 0 0];

internalField   nonuniform List<scalar> 
25
(
3.36805e-07
3.54372e-08
1.58602e-09
2.38871e-11
1.85825e-13
3.16361e-07
3.26559e-08
1.41534e-09
2.09415e-11
1.62098e-13
3.02449e-07
3.06455e-08
1.29033e-09
1.88487e-11
1.45737e-13
2.98835e-07
2.98638e-08
1.22796e-09
1.77026e-11
1.3636e-13
2.9792e-07
2.96511e-08
1.20855e-09
1.72597e-11
1.32304e-13
)
;

boundaryField
{
    fuel
    {
        type            fixedValue;
        value           nonuniform List<scalar> 0();
    }
    air
    {
        type            fixedValue;
        value           uniform 0;
    }
    outlet
    {
        type            inletOutlet;
        inletValue      uniform 0;
        value           nonuniform List<scalar> 5(3.36805e-07 3.54372e-08 1.58602e-09 2.38871e-11 1.85825e-13);
    }
    frontAndBack
    {
        type            empty;
    }
    procBoundary1to0
    {
        type            processor;
        value           nonuniform List<scalar> 5(6.07316e-08 5.84294e-08 5.68259e-08 5.65059e-08 5.64167e-08);
    }
    procBoundary1to3
    {
        type            processor;
        value           nonuniform List<scalar> 5(2.97922e-07 2.96514e-08 1.20857e-09 1.726e-11 1.32306e-13);
    }
}


// ************************************************************************* //
