/*--------------------------------*- C++ -*----------------------------------*\
  =========                 |
  \\      /  F ield         | OpenFOAM: The Open Source CFD Toolbox
   \\    /   O peration     | Website:  https://openfoam.org
    \\  /    A nd           | Version:  8
     \\/     M anipulation  |
\*---------------------------------------------------------------------------*/
FoamFile
{
    version     2.0;
    format      ascii;
    class       volScalarField;
    location    "0.2";
    object      CH2CO;
}
// * * * * * * * * * * * * * * * * * * * * * * * * * * * * * * * * * * * * * //

dimensions      [0 0 0 0 0 0 0];

internalField   nonuniform List<scalar> 
25
(
7.57716e-05
8.06315e-06
1.90453e-06
2.9659e-07
2.74287e-08
6.06674e-05
6.5125e-06
1.61103e-06
2.60676e-07
2.47248e-08
5.12794e-05
5.45648e-06
1.38195e-06
2.32868e-07
2.25253e-08
4.72332e-05
4.96526e-06
1.25059e-06
2.13641e-07
2.08801e-08
4.58079e-05
4.79085e-06
1.20014e-06
2.03099e-07
1.99315e-08
)
;

boundaryField
{
    fuel
    {
        type            fixedValue;
        value           nonuniform List<scalar> 0();
    }
    air
    {
        type            fixedValue;
        value           uniform 0;
    }
    outlet
    {
        type            inletOutlet;
        inletValue      uniform 0;
        value           nonuniform List<scalar> 5(7.57716e-05 8.06315e-06 1.90453e-06 2.9659e-07 2.74287e-08);
    }
    frontAndBack
    {
        type            empty;
    }
    procBoundary1to0
    {
        type            processor;
        value           nonuniform List<scalar> 5(9.95805e-05 9.56578e-05 8.91111e-05 8.51386e-05 8.33642e-05);
    }
    procBoundary1to3
    {
        type            processor;
        value           nonuniform List<scalar> 5(4.58094e-05 4.79101e-06 1.20018e-06 2.03106e-07 1.9932e-08);
    }
}


// ************************************************************************* //
