/*--------------------------------*- C++ -*----------------------------------*\
  =========                 |
  \\      /  F ield         | OpenFOAM: The Open Source CFD Toolbox
   \\    /   O peration     | Website:  https://openfoam.org
    \\  /    A nd           | Version:  8
     \\/     M anipulation  |
\*---------------------------------------------------------------------------*/
FoamFile
{
    version     2.0;
    format      ascii;
    class       volScalarField;
    location    "0.2";
    object      CH2CHO;
}
// * * * * * * * * * * * * * * * * * * * * * * * * * * * * * * * * * * * * * //

dimensions      [0 0 0 0 0 0 0];

internalField   nonuniform List<scalar> 
25
(
1.45194e-09
1.45256e-10
1.20553e-11
6.23252e-13
9.65055e-15
9.47937e-10
9.85835e-11
8.16326e-12
4.93576e-13
7.73555e-15
7.10808e-10
7.33322e-11
5.86837e-12
4.07863e-13
6.45571e-15
6.32375e-10
6.36904e-11
2.74009e-12
3.34423e-13
5.52189e-15
6.09895e-10
6.09329e-11
2.52543e-12
3.18335e-13
5.2209e-15
)
;

boundaryField
{
    fuel
    {
        type            fixedValue;
        value           nonuniform List<scalar> 0();
    }
    air
    {
        type            fixedValue;
        value           uniform 0;
    }
    outlet
    {
        type            inletOutlet;
        inletValue      uniform 0;
        value           nonuniform List<scalar> 5(1.45194e-09 1.45256e-10 1.20553e-11 6.23252e-13 9.65055e-15);
    }
    frontAndBack
    {
        type            empty;
    }
    procBoundary1to0
    {
        type            processor;
        value           nonuniform List<scalar> 5(1.92823e-09 1.10591e-09 1.01171e-09 9.95125e-10 9.92222e-10);
    }
    procBoundary1to3
    {
        type            processor;
        value           nonuniform List<scalar> 5(6.09921e-10 6.09355e-11 2.52555e-12 3.18328e-13 5.22058e-15);
    }
}


// ************************************************************************* //
