/*--------------------------------*- C++ -*----------------------------------*\
  =========                 |
  \\      /  F ield         | OpenFOAM: The Open Source CFD Toolbox
   \\    /   O peration     | Website:  https://openfoam.org
    \\  /    A nd           | Version:  8
     \\/     M anipulation  |
\*---------------------------------------------------------------------------*/
FoamFile
{
    version     2.0;
    format      ascii;
    class       volScalarField;
    location    "0.2";
    object      CH2O;
}
// * * * * * * * * * * * * * * * * * * * * * * * * * * * * * * * * * * * * * //

dimensions      [0 0 0 0 0 0 0];

internalField   nonuniform List<scalar> 
25
(
1.51443e-05
5.37229e-06
1.8807e-05
2.32016e-06
1.93153e-07
1.32414e-05
4.87533e-06
1.65845e-05
2.11785e-06
1.79031e-07
1.22886e-05
4.51853e-06
1.51531e-05
1.99125e-06
1.69354e-07
1.19774e-05
4.43809e-06
1.50546e-05
1.93061e-06
1.63191e-07
1.18879e-05
4.39568e-06
1.49623e-05
1.87526e-06
1.58289e-07
)
;

boundaryField
{
    fuel
    {
        type            fixedValue;
        value           nonuniform List<scalar> 0();
    }
    air
    {
        type            fixedValue;
        value           uniform 0;
    }
    outlet
    {
        type            inletOutlet;
        inletValue      uniform 0;
        value           nonuniform List<scalar> 5(1.51443e-05 5.37229e-06 1.8807e-05 2.32016e-06 1.93153e-07);
    }
    frontAndBack
    {
        type            empty;
    }
    procBoundary1to0
    {
        type            processor;
        value           nonuniform List<scalar> 5(4.16438e-05 3.62711e-05 3.66009e-05 3.73099e-05 3.76707e-05);
    }
    procBoundary1to3
    {
        type            processor;
        value           nonuniform List<scalar> 5(1.1888e-05 4.39585e-06 1.4963e-05 1.87533e-06 1.58294e-07);
    }
}


// ************************************************************************* //
