/*--------------------------------*- C++ -*----------------------------------*\
  =========                 |
  \\      /  F ield         | OpenFOAM: The Open Source CFD Toolbox
   \\    /   O peration     | Website:  https://openfoam.org
    \\  /    A nd           | Version:  8
     \\/     M anipulation  |
\*---------------------------------------------------------------------------*/
FoamFile
{
    version     2.0;
    format      ascii;
    class       volScalarField;
    location    "0.2";
    object      CH3;
}
// * * * * * * * * * * * * * * * * * * * * * * * * * * * * * * * * * * * * * //

dimensions      [0 0 0 0 0 0 0];

internalField   nonuniform List<scalar> 
25
(
0.000159706
1.66067e-05
7.40483e-07
1.52542e-08
4.59183e-10
0.000140998
1.45025e-05
6.28428e-07
1.2958e-08
4.09156e-10
0.000127668
1.29341e-05
5.45848e-07
1.13256e-08
3.72155e-10
0.000121587
1.21705e-05
5.01848e-07
1.04053e-08
3.50048e-10
0.000119435
1.19047e-05
4.86849e-07
1.00492e-08
3.41061e-10
)
;

boundaryField
{
    fuel
    {
        type            fixedValue;
        value           nonuniform List<scalar> 0();
    }
    air
    {
        type            fixedValue;
        value           uniform 0;
    }
    outlet
    {
        type            inletOutlet;
        inletValue      uniform 0;
        value           nonuniform List<scalar> 5(0.000159706 1.66067e-05 7.40483e-07 1.52542e-08 4.59183e-10);
    }
    frontAndBack
    {
        type            empty;
    }
    procBoundary1to0
    {
        type            processor;
        value           nonuniform List<scalar> 5(4.35274e-05 4.3747e-05 4.18238e-05 4.08406e-05 4.04372e-05);
    }
    procBoundary1to3
    {
        type            processor;
        value           nonuniform List<scalar> 5(0.000119438 1.1905e-05 4.86865e-07 1.00496e-08 3.41072e-10);
    }
}


// ************************************************************************* //
