/*--------------------------------*- C++ -*----------------------------------*\
  =========                 |
  \\      /  F ield         | OpenFOAM: The Open Source CFD Toolbox
   \\    /   O peration     | Website:  https://openfoam.org
    \\  /    A nd           | Version:  8
     \\/     M anipulation  |
\*---------------------------------------------------------------------------*/
FoamFile
{
    version     2.0;
    format      ascii;
    class       volScalarField;
    location    "0.2";
    object      CO2;
}
// * * * * * * * * * * * * * * * * * * * * * * * * * * * * * * * * * * * * * //

dimensions      [0 0 0 0 0 0 0];

internalField   nonuniform List<scalar> 
25
(
0.0761009
0.0810997
0.0232317
0.00362428
0.000295597
0.0753311
0.0782677
0.0221168
0.00344843
0.000282324
0.0746641
0.075956
0.0211956
0.00332576
0.00027255
0.0742712
0.0746429
0.0205297
0.00321162
0.000263262
0.0741246
0.0742144
0.0202834
0.00312922
0.00025641
)
;

boundaryField
{
    fuel
    {
        type            fixedValue;
        value           nonuniform List<scalar> 0();
    }
    air
    {
        type            fixedValue;
        value           uniform 0;
    }
    outlet
    {
        type            inletOutlet;
        inletValue      uniform 0;
        value           nonuniform List<scalar> 5(0.0761009 0.0810997 0.0232317 0.00362428 0.000295597);
    }
    frontAndBack
    {
        type            empty;
    }
    procBoundary1to0
    {
        type            processor;
        value           nonuniform List<scalar> 5(0.066109 0.0657126 0.065363 0.0651337 0.065021);
    }
    procBoundary1to3
    {
        type            processor;
        value           nonuniform List<scalar> 5(0.0741248 0.074215 0.0202835 0.00312924 0.00025641);
    }
}


// ************************************************************************* //
