/*--------------------------------*- C++ -*----------------------------------*\
  =========                 |
  \\      /  F ield         | OpenFOAM: The Open Source CFD Toolbox
   \\    /   O peration     | Website:  https://openfoam.org
    \\  /    A nd           | Version:  8
     \\/     M anipulation  |
\*---------------------------------------------------------------------------*/
FoamFile
{
    version     2.0;
    format      ascii;
    class       volScalarField;
    location    "0.2";
    object      H;
}
// * * * * * * * * * * * * * * * * * * * * * * * * * * * * * * * * * * * * * //

dimensions      [0 0 0 0 0 0 0];

internalField   nonuniform List<scalar> 
25
(
3.62933e-06
6.04377e-07
2.70808e-08
4.07731e-10
3.16685e-12
3.72591e-06
5.6002e-07
2.43403e-08
3.6027e-10
2.78544e-12
3.89436e-06
5.4037e-07
2.27783e-08
3.32574e-10
2.56751e-12
4.0436e-06
5.37792e-07
2.2149e-08
3.18959e-10
2.45285e-12
4.1082e-06
5.39385e-07
2.20127e-08
3.13981e-10
2.40272e-12
)
;

boundaryField
{
    fuel
    {
        type            fixedValue;
        value           nonuniform List<scalar> 0();
    }
    air
    {
        type            fixedValue;
        value           uniform 0;
    }
    outlet
    {
        type            inletOutlet;
        inletValue      uniform 0;
        value           nonuniform List<scalar> 5(3.62933e-06 6.04377e-07 2.70808e-08 4.07731e-10 3.16685e-12);
    }
    frontAndBack
    {
        type            empty;
    }
    procBoundary1to0
    {
        type            processor;
        value           nonuniform List<scalar> 5(6.79976e-07 7.08558e-07 7.452e-07 7.75705e-07 7.8893e-07);
    }
    procBoundary1to3
    {
        type            processor;
        value           nonuniform List<scalar> 5(4.10811e-06 5.39385e-07 2.20129e-08 3.13983e-10 2.40274e-12);
    }
}


// ************************************************************************* //
