/*--------------------------------*- C++ -*----------------------------------*\
  =========                 |
  \\      /  F ield         | OpenFOAM: The Open Source CFD Toolbox
   \\    /   O peration     | Website:  https://openfoam.org
    \\  /    A nd           | Version:  8
     \\/     M anipulation  |
\*---------------------------------------------------------------------------*/
FoamFile
{
    version     2.0;
    format      ascii;
    class       volScalarField;
    location    "0.2";
    object      H2;
}
// * * * * * * * * * * * * * * * * * * * * * * * * * * * * * * * * * * * * * //

dimensions      [0 0 0 0 0 0 0];

internalField   nonuniform List<scalar> 
25
(
0.00438108
0.000491496
0.000134756
2.09154e-05
1.70315e-06
0.00426705
0.00046698
0.000127282
1.97938e-05
1.62001e-06
0.00418017
0.00044759
0.000121124
1.89946e-05
1.558e-06
0.00413063
0.000436631
0.000116711
1.8278e-05
1.50088e-06
0.00411269
0.000432894
0.000115057
1.77805e-05
1.46006e-06
)
;

boundaryField
{
    fuel
    {
        type            fixedValue;
        value           nonuniform List<scalar> 0();
    }
    air
    {
        type            fixedValue;
        value           uniform 0;
    }
    outlet
    {
        type            inletOutlet;
        inletValue      uniform 0;
        value           nonuniform List<scalar> 5(0.00438108 0.000491496 0.000134756 2.09154e-05 1.70315e-06);
    }
    frontAndBack
    {
        type            empty;
    }
    procBoundary1to0
    {
        type            processor;
        value           nonuniform List<scalar> 5(0.00377756 0.00372617 0.0036806 0.00365143 0.00363807);
    }
    procBoundary1to3
    {
        type            processor;
        value           nonuniform List<scalar> 5(0.00411271 0.000432899 0.000115058 1.77806e-05 1.46006e-06);
    }
}


// ************************************************************************* //
