/*--------------------------------*- C++ -*----------------------------------*\
  =========                 |
  \\      /  F ield         | OpenFOAM: The Open Source CFD Toolbox
   \\    /   O peration     | Website:  https://openfoam.org
    \\  /    A nd           | Version:  8
     \\/     M anipulation  |
\*---------------------------------------------------------------------------*/
FoamFile
{
    version     2.0;
    format      ascii;
    class       volScalarField;
    location    "0.2";
    object      H2CN;
}
// * * * * * * * * * * * * * * * * * * * * * * * * * * * * * * * * * * * * * //

dimensions      [0 0 0 0 0 0 0];

internalField   nonuniform List<scalar> 
25
(
5.4956e-12
6.02142e-13
6.70702e-14
2.69601e-13
2.1861e-14
5.86708e-12
6.18552e-13
6.44804e-14
2.40188e-13
1.98587e-14
6.15148e-12
6.37654e-13
8.25667e-14
2.23309e-13
1.85906e-14
6.41467e-12
6.70234e-13
1.69017e-13
2.14961e-13
1.78091e-14
6.54375e-12
6.89621e-13
2.15396e-13
2.10182e-13
1.73368e-14
)
;

boundaryField
{
    fuel
    {
        type            fixedValue;
        value           nonuniform List<scalar> 0();
    }
    air
    {
        type            fixedValue;
        value           uniform 0;
    }
    outlet
    {
        type            inletOutlet;
        inletValue      uniform 0;
        value           nonuniform List<scalar> 5(5.4956e-12 6.02142e-13 6.70702e-14 2.69601e-13 2.1861e-14);
    }
    frontAndBack
    {
        type            empty;
    }
    procBoundary1to0
    {
        type            processor;
        value           nonuniform List<scalar> 5(3.50473e-12 3.74599e-12 3.90344e-12 4.04317e-12 4.11621e-12);
    }
    procBoundary1to3
    {
        type            processor;
        value           nonuniform List<scalar> 5(6.54363e-12 6.89613e-13 2.15365e-13 2.10183e-13 1.73365e-14);
    }
}


// ************************************************************************* //
