/*--------------------------------*- C++ -*----------------------------------*\
  =========                 |
  \\      /  F ield         | OpenFOAM: The Open Source CFD Toolbox
   \\    /   O peration     | Website:  https://openfoam.org
    \\  /    A nd           | Version:  8
     \\/     M anipulation  |
\*---------------------------------------------------------------------------*/
FoamFile
{
    version     2.0;
    format      ascii;
    class       volScalarField;
    location    "0.2";
    object      HCCOH;
}
// * * * * * * * * * * * * * * * * * * * * * * * * * * * * * * * * * * * * * //

dimensions      [0 0 0 0 0 0 0];

internalField   nonuniform List<scalar> 
25
(
1.13647e-05
1.26943e-06
3.52086e-07
5.45972e-08
4.4019e-09
1.12681e-05
1.22401e-06
3.35403e-07
5.19679e-08
4.20822e-09
1.10858e-05
1.17893e-06
3.20595e-07
5.00506e-08
4.0621e-09
1.09153e-05
1.14754e-06
3.09189e-07
4.82204e-08
3.91957e-09
1.08348e-05
1.1349e-06
3.04542e-07
4.68968e-08
3.81371e-09
)
;

boundaryField
{
    fuel
    {
        type            fixedValue;
        value           nonuniform List<scalar> 0();
    }
    air
    {
        type            fixedValue;
        value           uniform 0;
    }
    outlet
    {
        type            inletOutlet;
        inletValue      uniform 0;
        value           nonuniform List<scalar> 5(1.13647e-05 1.26943e-06 3.52086e-07 5.45972e-08 4.4019e-09);
    }
    frontAndBack
    {
        type            empty;
    }
    procBoundary1to0
    {
        type            processor;
        value           nonuniform List<scalar> 5(7.15053e-06 7.36157e-06 7.39221e-06 7.37861e-06 7.36429e-06);
    }
    procBoundary1to3
    {
        type            processor;
        value           nonuniform List<scalar> 5(1.08349e-05 1.13492e-06 3.04545e-07 4.68967e-08 3.81364e-09);
    }
}


// ************************************************************************* //
