/*--------------------------------*- C++ -*----------------------------------*\
  =========                 |
  \\      /  F ield         | OpenFOAM: The Open Source CFD Toolbox
   \\    /   O peration     | Website:  https://openfoam.org
    \\  /    A nd           | Version:  8
     \\/     M anipulation  |
\*---------------------------------------------------------------------------*/
FoamFile
{
    version     2.0;
    format      ascii;
    class       volScalarField;
    location    "0.2";
    object      HO2;
}
// * * * * * * * * * * * * * * * * * * * * * * * * * * * * * * * * * * * * * //

dimensions      [0 0 0 0 0 0 0];

internalField   nonuniform List<scalar> 
25
(
1.089e-06
4.10698e-06
1.54048e-05
1.3109e-06
9.00555e-08
1.07291e-06
3.97524e-06
1.42803e-05
1.20667e-06
8.40947e-08
1.02596e-06
3.74672e-06
1.28123e-05
1.11442e-06
7.89404e-08
9.89226e-07
3.57899e-06
1.18166e-05
1.04919e-06
7.50471e-08
9.71623e-07
3.50721e-06
1.14661e-05
1.01253e-06
7.27637e-08
)
;

boundaryField
{
    fuel
    {
        type            fixedValue;
        value           nonuniform List<scalar> 0();
    }
    air
    {
        type            fixedValue;
        value           uniform 0;
    }
    outlet
    {
        type            inletOutlet;
        inletValue      uniform 0;
        value           nonuniform List<scalar> 5(1.089e-06 4.10698e-06 1.54048e-05 1.3109e-06 9.00555e-08);
    }
    frontAndBack
    {
        type            empty;
    }
    procBoundary1to0
    {
        type            processor;
        value           nonuniform List<scalar> 5(6.81185e-07 7.89218e-07 8.03919e-07 8.09415e-07 8.1096e-07);
    }
    procBoundary1to3
    {
        type            processor;
        value           nonuniform List<scalar> 5(9.71647e-07 3.50723e-06 1.14663e-05 1.01255e-06 7.27644e-08);
    }
}


// ************************************************************************* //
