/*--------------------------------*- C++ -*----------------------------------*\
  =========                 |
  \\      /  F ield         | OpenFOAM: The Open Source CFD Toolbox
   \\    /   O peration     | Website:  https://openfoam.org
    \\  /    A nd           | Version:  8
     \\/     M anipulation  |
\*---------------------------------------------------------------------------*/
FoamFile
{
    version     2.0;
    format      ascii;
    class       volScalarField;
    location    "0.2";
    object      N2;
}
// * * * * * * * * * * * * * * * * * * * * * * * * * * * * * * * * * * * * * //

dimensions      [0 0 0 0 0 0 0];

internalField   nonuniform List<scalar> 
25
(
0.701
0.742321
0.762237
0.768854
0.769916
0.702623
0.743389
0.762632
0.768915
0.76992
0.703863
0.744249
0.762958
0.768957
0.769924
0.704543
0.744733
0.76319
0.768996
0.769927
0.704781
0.744891
0.763275
0.769022
0.769929
)
;

boundaryField
{
    fuel
    {
        type            fixedValue;
        value           nonuniform List<scalar> 0();
    }
    air
    {
        type            fixedValue;
        value           uniform 0.77;
    }
    outlet
    {
        type            inletOutlet;
        inletValue      uniform 1;
        value           nonuniform List<scalar> 5(0.701 0.742321 0.762237 0.768854 0.769916);
    }
    frontAndBack
    {
        type            empty;
    }
    procBoundary1to0
    {
        type            processor;
        value           nonuniform List<scalar> 5(0.617404 0.61785 0.618577 0.619042 0.619161);
    }
    procBoundary1to3
    {
        type            processor;
        value           nonuniform List<scalar> 5(0.704781 0.744891 0.763275 0.769022 0.769929);
    }
}


// ************************************************************************* //
