/*--------------------------------*- C++ -*----------------------------------*\
  =========                 |
  \\      /  F ield         | OpenFOAM: The Open Source CFD Toolbox
   \\    /   O peration     | Website:  https://openfoam.org
    \\  /    A nd           | Version:  8
     \\/     M anipulation  |
\*---------------------------------------------------------------------------*/
FoamFile
{
    version     2.0;
    format      ascii;
    class       volScalarField;
    location    "0.2";
    object      NH;
}
// * * * * * * * * * * * * * * * * * * * * * * * * * * * * * * * * * * * * * //

dimensions      [0 0 0 0 0 0 0];

internalField   nonuniform List<scalar> 
25
(
4.4861e-10
5.19817e-11
2.36594e-12
4.14476e-14
4.5917e-16
4.7356e-10
5.24249e-11
2.30357e-12
3.97595e-14
4.27998e-16
5.1055e-10
5.43703e-11
2.31154e-12
3.93109e-14
4.12831e-16
5.44742e-10
5.66908e-11
2.33157e-12
3.91986e-14
4.04967e-16
5.60762e-10
5.80057e-11
2.36284e-12
3.93913e-14
4.02116e-16
)
;

boundaryField
{
    fuel
    {
        type            fixedValue;
        value           nonuniform List<scalar> 0();
    }
    air
    {
        type            fixedValue;
        value           uniform 0;
    }
    outlet
    {
        type            inletOutlet;
        inletValue      uniform 0;
        value           nonuniform List<scalar> 5(4.4861e-10 5.19817e-11 2.36594e-12 4.14476e-14 4.5917e-16);
    }
    frontAndBack
    {
        type            empty;
    }
    procBoundary1to0
    {
        type            processor;
        value           nonuniform List<scalar> 5(8.99641e-11 8.97037e-11 9.66359e-11 1.03097e-10 1.06184e-10);
    }
    procBoundary1to3
    {
        type            processor;
        value           nonuniform List<scalar> 5(5.60739e-10 5.8004e-11 2.36279e-12 3.93907e-14 4.02114e-16);
    }
}


// ************************************************************************* //
