/*--------------------------------*- C++ -*----------------------------------*\
  =========                 |
  \\      /  F ield         | OpenFOAM: The Open Source CFD Toolbox
   \\    /   O peration     | Website:  https://openfoam.org
    \\  /    A nd           | Version:  8
     \\/     M anipulation  |
\*---------------------------------------------------------------------------*/
FoamFile
{
    version     2.0;
    format      ascii;
    class       volScalarField;
    location    "0.2";
    object      NO;
}
// * * * * * * * * * * * * * * * * * * * * * * * * * * * * * * * * * * * * * //

dimensions      [0 0 0 0 0 0 0];

internalField   nonuniform List<scalar> 
25
(
3.27896e-06
8.00187e-06
4.81042e-07
3.17138e-08
2.27833e-09
3.29466e-06
7.29951e-06
4.33279e-07
2.94045e-08
2.13839e-09
3.33716e-06
6.80357e-06
4.08849e-07
2.83906e-08
2.0706e-09
3.39371e-06
6.58259e-06
4.09914e-07
2.81731e-08
2.04249e-09
3.42662e-06
6.52617e-06
4.10119e-07
2.80891e-08
2.02389e-09
)
;

boundaryField
{
    fuel
    {
        type            fixedValue;
        value           nonuniform List<scalar> 0();
    }
    air
    {
        type            fixedValue;
        value           uniform 0;
    }
    outlet
    {
        type            inletOutlet;
        inletValue      uniform 0;
        value           nonuniform List<scalar> 5(3.27896e-06 8.00187e-06 4.81042e-07 3.17138e-08 2.27833e-09);
    }
    frontAndBack
    {
        type            empty;
    }
    procBoundary1to0
    {
        type            processor;
        value           nonuniform List<scalar> 5(2.86012e-06 2.86217e-06 2.88237e-06 2.90823e-06 2.92452e-06);
    }
    procBoundary1to3
    {
        type            processor;
        value           nonuniform List<scalar> 5(3.42657e-06 6.52622e-06 4.10122e-07 2.8089e-08 2.02389e-09);
    }
}


// ************************************************************************* //
