/*--------------------------------*- C++ -*----------------------------------*\
  =========                 |
  \\      /  F ield         | OpenFOAM: The Open Source CFD Toolbox
   \\    /   O peration     | Website:  https://openfoam.org
    \\  /    A nd           | Version:  8
     \\/     M anipulation  |
\*---------------------------------------------------------------------------*/
FoamFile
{
    version     2.0;
    format      ascii;
    class       volScalarField;
    location    "0.05";
    object      CH2OH;
}
// * * * * * * * * * * * * * * * * * * * * * * * * * * * * * * * * * * * * * //

dimensions      [0 0 0 0 0 0 0];

internalField   nonuniform List<scalar> 
25
(
1.15679e-15
7.90909e-14
3.77661e-12
1.13164e-10
1.62693e-09
7.13108e-16
4.6927e-14
2.21503e-12
6.52136e-11
9.273e-10
3.23405e-16
1.92713e-14
8.79627e-13
2.44668e-11
3.36193e-10
1.42914e-16
6.97727e-15
3.08738e-13
7.97726e-12
1.07271e-10
7.1078e-17
2.51546e-15
1.06085e-13
2.68607e-12
3.73833e-11
)
;

boundaryField
{
    fuel
    {
        type            fixedValue;
        value           uniform 0;
    }
    air
    {
        type            fixedValue;
        value           nonuniform List<scalar> 0();
    }
    outlet
    {
        type            inletOutlet;
        inletValue      uniform 0;
        value           nonuniform List<scalar> 5(7.1078e-17 2.51546e-15 1.06085e-13 2.68607e-12 3.73833e-11);
    }
    frontAndBack
    {
        type            empty;
    }
    procBoundary2to0
    {
        type            processor;
        value           nonuniform List<scalar> 5(1.15686e-15 7.90973e-14 3.77692e-12 1.13174e-10 1.62704e-09);
    }
    procBoundary2to3
    {
        type            processor;
        value           nonuniform List<scalar> 5(1.32467e-08 7.31508e-09 2.38051e-09 7.12181e-10 2.60455e-10);
    }
}


// ************************************************************************* //
