/*--------------------------------*- C++ -*----------------------------------*\
  =========                 |
  \\      /  F ield         | OpenFOAM: The Open Source CFD Toolbox
   \\    /   O peration     | Website:  https://openfoam.org
    \\  /    A nd           | Version:  8
     \\/     M anipulation  |
\*---------------------------------------------------------------------------*/
FoamFile
{
    version     2.0;
    format      ascii;
    class       volScalarField;
    location    "0.05";
    object      CH2O;
}
// * * * * * * * * * * * * * * * * * * * * * * * * * * * * * * * * * * * * * //

dimensions      [0 0 0 0 0 0 0];

internalField   nonuniform List<scalar> 
25
(
9.08543e-08
1.03798e-06
7.68374e-06
3.97833e-05
0.000127408
8.91096e-08
1.05376e-06
8.05978e-06
4.27403e-05
0.000139565
8.57987e-08
1.05395e-06
8.35119e-06
4.52864e-05
0.000154216
7.68234e-08
9.87688e-07
8.04256e-06
4.30908e-05
0.000146587
6.62144e-08
8.89957e-07
7.32195e-06
3.88955e-05
0.000129769
)
;

boundaryField
{
    fuel
    {
        type            fixedValue;
        value           uniform 0;
    }
    air
    {
        type            fixedValue;
        value           nonuniform List<scalar> 0();
    }
    outlet
    {
        type            inletOutlet;
        inletValue      uniform 0;
        value           nonuniform List<scalar> 5(6.62144e-08 8.89957e-07 7.32195e-06 3.88955e-05 0.000129769);
    }
    frontAndBack
    {
        type            empty;
    }
    procBoundary2to0
    {
        type            processor;
        value           nonuniform List<scalar> 5(9.08579e-08 1.03801e-06 7.68386e-06 3.97835e-05 0.000127407);
    }
    procBoundary2to3
    {
        type            processor;
        value           nonuniform List<scalar> 5(0.000266564 0.000316904 0.000333076 0.000293982 0.000251362);
    }
}


// ************************************************************************* //
