/*--------------------------------*- C++ -*----------------------------------*\
  =========                 |
  \\      /  F ield         | OpenFOAM: The Open Source CFD Toolbox
   \\    /   O peration     | Website:  https://openfoam.org
    \\  /    A nd           | Version:  8
     \\/     M anipulation  |
\*---------------------------------------------------------------------------*/
FoamFile
{
    version     2.0;
    format      ascii;
    class       volScalarField;
    location    "0.05";
    object      CH3O;
}
// * * * * * * * * * * * * * * * * * * * * * * * * * * * * * * * * * * * * * //

dimensions      [0 0 0 0 0 0 0];

internalField   nonuniform List<scalar> 
25
(
4.10734e-10
2.53773e-09
2.0071e-09
1.25584e-09
9.34743e-09
3.67247e-10
2.30856e-09
1.89096e-09
1.14414e-09
8.33338e-09
2.98868e-10
1.94693e-09
1.6869e-09
8.77417e-10
5.38318e-09
2.22298e-10
1.60583e-09
1.48724e-09
6.52487e-10
3.02879e-09
1.67347e-10
1.33705e-09
1.27123e-09
5.03167e-10
1.78249e-09
)
;

boundaryField
{
    fuel
    {
        type            fixedValue;
        value           uniform 0;
    }
    air
    {
        type            fixedValue;
        value           nonuniform List<scalar> 0();
    }
    outlet
    {
        type            inletOutlet;
        inletValue      uniform 0;
        value           nonuniform List<scalar> 5(1.67347e-10 1.33705e-09 1.27123e-09 5.03167e-10 1.78249e-09);
    }
    frontAndBack
    {
        type            empty;
    }
    procBoundary2to0
    {
        type            processor;
        value           nonuniform List<scalar> 5(4.10728e-10 2.53767e-09 2.00704e-09 1.25587e-09 9.34802e-09);
    }
    procBoundary2to3
    {
        type            processor;
        value           nonuniform List<scalar> 5(6.85136e-08 6.08715e-08 3.76732e-08 2.00183e-08 1.16749e-08);
    }
}


// ************************************************************************* //
