/*--------------------------------*- C++ -*----------------------------------*\
  =========                 |
  \\      /  F ield         | OpenFOAM: The Open Source CFD Toolbox
   \\    /   O peration     | Website:  https://openfoam.org
    \\  /    A nd           | Version:  8
     \\/     M anipulation  |
\*---------------------------------------------------------------------------*/
FoamFile
{
    version     2.0;
    format      ascii;
    class       volScalarField;
    location    "0.05";
    object      H2O2;
}
// * * * * * * * * * * * * * * * * * * * * * * * * * * * * * * * * * * * * * //

dimensions      [0 0 0 0 0 0 0];

internalField   nonuniform List<scalar> 
25
(
7.05088e-10
8.83753e-09
6.52855e-08
2.73532e-07
3.30588e-07
6.52147e-10
8.17841e-09
6.04581e-08
2.55789e-07
3.4664e-07
5.56381e-10
7.01358e-09
5.23408e-08
2.2434e-07
3.4898e-07
4.41625e-10
5.75902e-09
4.4154e-08
1.9099e-07
3.35652e-07
3.44689e-10
4.68e-09
3.63304e-08
1.64834e-07
3.19086e-07
)
;

boundaryField
{
    fuel
    {
        type            fixedValue;
        value           uniform 0;
    }
    air
    {
        type            fixedValue;
        value           nonuniform List<scalar> 0();
    }
    outlet
    {
        type            inletOutlet;
        inletValue      uniform 0;
        value           nonuniform List<scalar> 5(3.44689e-10 4.68e-09 3.63304e-08 1.64834e-07 3.19086e-07);
    }
    frontAndBack
    {
        type            empty;
    }
    procBoundary2to0
    {
        type            processor;
        value           nonuniform List<scalar> 5(7.05102e-10 8.83784e-09 6.52897e-08 2.73553e-07 3.30489e-07);
    }
    procBoundary2to3
    {
        type            processor;
        value           nonuniform List<scalar> 5(1.57863e-06 1.4647e-06 1.25253e-06 1.00885e-06 8.07863e-07);
    }
}


// ************************************************************************* //
