/*--------------------------------*- C++ -*----------------------------------*\
  =========                 |
  \\      /  F ield         | OpenFOAM: The Open Source CFD Toolbox
   \\    /   O peration     | Website:  https://openfoam.org
    \\  /    A nd           | Version:  8
     \\/     M anipulation  |
\*---------------------------------------------------------------------------*/
FoamFile
{
    version     2.0;
    format      ascii;
    class       volScalarField;
    location    "0.05";
    object      HCNN;
}
// * * * * * * * * * * * * * * * * * * * * * * * * * * * * * * * * * * * * * //

dimensions      [0 0 0 0 0 0 0];

internalField   nonuniform List<scalar> 
25
(
4.21954e-20
3.11524e-18
1.50225e-16
4.53925e-15
6.58204e-14
1.86821e-20
1.309e-18
6.11591e-17
1.74698e-15
2.33346e-14
6.25434e-21
3.86775e-19
1.72401e-17
4.48985e-16
5.35577e-15
2.34166e-21
1.02134e-19
4.41261e-18
1.04957e-16
1.14029e-15
1.28936e-21
2.55432e-20
1.0464e-18
2.45663e-17
2.47782e-16
)
;

boundaryField
{
    fuel
    {
        type            fixedValue;
        value           uniform 0;
    }
    air
    {
        type            fixedValue;
        value           nonuniform List<scalar> 0();
    }
    outlet
    {
        type            inletOutlet;
        inletValue      uniform 0;
        value           nonuniform List<scalar> 5(1.28936e-21 2.55432e-20 1.0464e-18 2.45663e-17 2.47782e-16);
    }
    frontAndBack
    {
        type            empty;
    }
    procBoundary2to0
    {
        type            processor;
        value           nonuniform List<scalar> 5(4.21985e-20 3.11548e-18 1.50235e-16 4.53953e-15 6.58222e-14);
    }
    procBoundary2to3
    {
        type            processor;
        value           nonuniform List<scalar> 5(5.433e-13 1.66136e-13 2.89638e-14 5.07362e-15 8.93251e-16);
    }
}


// ************************************************************************* //
