/*--------------------------------*- C++ -*----------------------------------*\
  =========                 |
  \\      /  F ield         | OpenFOAM: The Open Source CFD Toolbox
   \\    /   O peration     | Website:  https://openfoam.org
    \\  /    A nd           | Version:  8
     \\/     M anipulation  |
\*---------------------------------------------------------------------------*/
FoamFile
{
    version     2.0;
    format      ascii;
    class       volScalarField;
    location    "0.05";
    object      HCNO;
}
// * * * * * * * * * * * * * * * * * * * * * * * * * * * * * * * * * * * * * //

dimensions      [0 0 0 0 0 0 0];

internalField   nonuniform List<scalar> 
25
(
3.19361e-09
2.50853e-08
1.21925e-07
4.2718e-07
9.74206e-07
3.015e-09
2.36192e-08
1.12965e-07
3.81153e-07
8.1949e-07
2.65161e-09
2.08122e-08
9.80613e-08
3.11263e-07
6.10072e-07
2.12353e-09
1.75117e-08
8.33225e-08
2.48553e-07
4.49431e-07
1.65852e-09
1.45734e-08
6.9145e-08
2.03046e-07
3.38263e-07
)
;

boundaryField
{
    fuel
    {
        type            fixedValue;
        value           uniform 0;
    }
    air
    {
        type            fixedValue;
        value           nonuniform List<scalar> 0();
    }
    outlet
    {
        type            inletOutlet;
        inletValue      uniform 0;
        value           nonuniform List<scalar> 5(1.65852e-09 1.45734e-08 6.9145e-08 2.03046e-07 3.38263e-07);
    }
    frontAndBack
    {
        type            empty;
    }
    procBoundary2to0
    {
        type            processor;
        value           nonuniform List<scalar> 5(3.19365e-09 2.5087e-08 1.21942e-07 4.27265e-07 9.74416e-07);
    }
    procBoundary2to3
    {
        type            processor;
        value           nonuniform List<scalar> 5(1.45525e-06 1.10017e-06 6.67615e-07 4.13965e-07 2.92636e-07);
    }
}


// ************************************************************************* //
