/*--------------------------------*- C++ -*----------------------------------*\
  =========                 |
  \\      /  F ield         | OpenFOAM: The Open Source CFD Toolbox
   \\    /   O peration     | Website:  https://openfoam.org
    \\  /    A nd           | Version:  8
     \\/     M anipulation  |
\*---------------------------------------------------------------------------*/
FoamFile
{
    version     2.0;
    format      ascii;
    class       volScalarField;
    location    "0.05";
    object      HNO;
}
// * * * * * * * * * * * * * * * * * * * * * * * * * * * * * * * * * * * * * //

dimensions      [0 0 0 0 0 0 0];

internalField   nonuniform List<scalar> 
25
(
9.42059e-13
6.28177e-12
2.03355e-11
2.42354e-11
1.24907e-10
8.29355e-13
5.52643e-12
1.81554e-11
2.23789e-11
1.1158e-10
6.58111e-13
4.40247e-12
1.48883e-11
1.84506e-11
8.00919e-11
4.82349e-13
3.39561e-12
1.20682e-11
1.5114e-11
5.61158e-11
3.65174e-13
2.67985e-12
9.49675e-12
1.25211e-11
4.00499e-11
)
;

boundaryField
{
    fuel
    {
        type            fixedValue;
        value           uniform 0;
    }
    air
    {
        type            fixedValue;
        value           nonuniform List<scalar> 0();
    }
    outlet
    {
        type            inletOutlet;
        inletValue      uniform 0;
        value           nonuniform List<scalar> 5(3.65174e-13 2.67985e-12 9.49675e-12 1.25211e-11 4.00499e-11);
    }
    frontAndBack
    {
        type            empty;
    }
    procBoundary2to0
    {
        type            processor;
        value           nonuniform List<scalar> 5(9.41962e-13 6.28186e-12 2.03374e-11 2.42404e-11 1.24938e-10);
    }
    procBoundary2to3
    {
        type            processor;
        value           nonuniform List<scalar> 5(7.72716e-10 6.20692e-10 4.17721e-10 2.82956e-10 2.02147e-10);
    }
}


// ************************************************************************* //
