/*--------------------------------*- C++ -*----------------------------------*\
  =========                 |
  \\      /  F ield         | OpenFOAM: The Open Source CFD Toolbox
   \\    /   O peration     | Website:  https://openfoam.org
    \\  /    A nd           | Version:  8
     \\/     M anipulation  |
\*---------------------------------------------------------------------------*/
FoamFile
{
    version     2.0;
    format      ascii;
    class       volScalarField;
    location    "0.05";
    object      HOCN;
}
// * * * * * * * * * * * * * * * * * * * * * * * * * * * * * * * * * * * * * //

dimensions      [0 0 0 0 0 0 0];

internalField   nonuniform List<scalar> 
25
(
1.91838e-11
1.33586e-10
5.1929e-10
1.2968e-09
2.04645e-09
1.73945e-11
1.23513e-10
4.87968e-10
1.22947e-09
1.93783e-09
1.45259e-11
1.06692e-10
4.36643e-10
1.11476e-09
1.75325e-09
1.11877e-11
8.87681e-11
3.84084e-10
9.87922e-10
1.55018e-09
8.53945e-12
7.36624e-11
3.30183e-10
8.79955e-10
1.36227e-09
)
;

boundaryField
{
    fuel
    {
        type            fixedValue;
        value           uniform 0;
    }
    air
    {
        type            fixedValue;
        value           nonuniform List<scalar> 0();
    }
    outlet
    {
        type            inletOutlet;
        inletValue      uniform 0;
        value           nonuniform List<scalar> 5(8.53945e-12 7.36624e-11 3.30183e-10 8.79955e-10 1.36227e-09);
    }
    frontAndBack
    {
        type            empty;
    }
    procBoundary2to0
    {
        type            processor;
        value           nonuniform List<scalar> 5(1.92013e-11 1.33698e-10 5.19668e-10 1.29758e-09 2.04742e-09);
    }
    procBoundary2to3
    {
        type            processor;
        value           nonuniform List<scalar> 5(2.50964e-09 2.27134e-09 1.90992e-09 1.56382e-09 1.3335e-09);
    }
}


// ************************************************************************* //
