/*--------------------------------*- C++ -*----------------------------------*\
  =========                 |
  \\      /  F ield         | OpenFOAM: The Open Source CFD Toolbox
   \\    /   O peration     | Website:  https://openfoam.org
    \\  /    A nd           | Version:  8
     \\/     M anipulation  |
\*---------------------------------------------------------------------------*/
FoamFile
{
    version     2.0;
    format      ascii;
    class       volScalarField;
    location    "0.05";
    object      N2;
}
// * * * * * * * * * * * * * * * * * * * * * * * * * * * * * * * * * * * * * //

dimensions      [0 0 0 0 0 0 0];

internalField   nonuniform List<scalar> 
25
(
0.0446479
0.170789
0.375066
0.608677
0.767913
0.045779
0.174127
0.38007
0.612798
0.771774
0.048876
0.18311
0.392391
0.621959
0.779006
0.0543988
0.199109
0.41154
0.637625
0.788357
0.0623999
0.221863
0.444787
0.657321
0.79928
)
;

boundaryField
{
    fuel
    {
        type            fixedValue;
        value           uniform 0;
    }
    air
    {
        type            fixedValue;
        value           nonuniform List<scalar> 0();
    }
    outlet
    {
        type            inletOutlet;
        inletValue      uniform 1;
        value           nonuniform List<scalar> 5(0.0623999 0.221863 0.444787 0.657321 0.79928);
    }
    frontAndBack
    {
        type            empty;
    }
    procBoundary2to0
    {
        type            processor;
        value           nonuniform List<scalar> 5(0.0446477 0.170789 0.375068 0.60868 0.767917);
    }
    procBoundary2to3
    {
        type            processor;
        value           nonuniform List<scalar> 5(0.818415 0.821384 0.826768 0.833601 0.840047);
    }
}


// ************************************************************************* //
