/*--------------------------------*- C++ -*----------------------------------*\
  =========                 |
  \\      /  F ield         | OpenFOAM: The Open Source CFD Toolbox
   \\    /   O peration     | Website:  https://openfoam.org
    \\  /    A nd           | Version:  8
     \\/     M anipulation  |
\*---------------------------------------------------------------------------*/
FoamFile
{
    version     2.0;
    format      ascii;
    class       volScalarField;
    location    "0.05";
    object      N2O;
}
// * * * * * * * * * * * * * * * * * * * * * * * * * * * * * * * * * * * * * //

dimensions      [0 0 0 0 0 0 0];

internalField   nonuniform List<scalar> 
25
(
7.63133e-10
6.45307e-09
3.28453e-08
1.12701e-07
2.41419e-07
7.65162e-10
6.55857e-09
3.4075e-08
1.20019e-07
2.68249e-07
7.58314e-10
6.66116e-09
3.57489e-08
1.29933e-07
3.06296e-07
7.13208e-10
6.62783e-09
3.70942e-08
1.38483e-07
3.38461e-07
6.5486e-10
6.51967e-09
3.8144e-08
1.44083e-07
3.59863e-07
)
;

boundaryField
{
    fuel
    {
        type            fixedValue;
        value           uniform 0;
    }
    air
    {
        type            fixedValue;
        value           nonuniform List<scalar> 0();
    }
    outlet
    {
        type            inletOutlet;
        inletValue      uniform 0;
        value           nonuniform List<scalar> 5(6.5486e-10 6.51967e-09 3.8144e-08 1.44083e-07 3.59863e-07);
    }
    frontAndBack
    {
        type            empty;
    }
    procBoundary2to0
    {
        type            processor;
        value           nonuniform List<scalar> 5(7.63039e-10 6.45265e-09 3.28446e-08 1.12701e-07 2.41418e-07);
    }
    procBoundary2to3
    {
        type            processor;
        value           nonuniform List<scalar> 5(3.51445e-07 4.02093e-07 4.73272e-07 5.30988e-07 5.61769e-07);
    }
}


// ************************************************************************* //
