/*--------------------------------*- C++ -*----------------------------------*\
  =========                 |
  \\      /  F ield         | OpenFOAM: The Open Source CFD Toolbox
   \\    /   O peration     | Website:  https://openfoam.org
    \\  /    A nd           | Version:  8
     \\/     M anipulation  |
\*---------------------------------------------------------------------------*/
FoamFile
{
    version     2.0;
    format      ascii;
    class       volScalarField;
    location    "0.05";
    object      NCO;
}
// * * * * * * * * * * * * * * * * * * * * * * * * * * * * * * * * * * * * * //

dimensions      [0 0 0 0 0 0 0];

internalField   nonuniform List<scalar> 
25
(
5.55196e-14
1.39253e-13
5.96548e-13
6.63074e-12
9.29534e-11
5.62993e-14
1.27455e-13
4.95926e-13
4.93982e-12
6.97413e-11
5.80053e-14
1.13521e-13
3.53366e-13
2.77806e-12
3.84363e-11
6.05067e-14
1.09956e-13
2.62604e-13
1.5926e-12
2.14557e-11
6.56102e-14
1.16935e-13
2.02509e-13
1.03124e-12
1.32111e-11
)
;

boundaryField
{
    fuel
    {
        type            fixedValue;
        value           uniform 0;
    }
    air
    {
        type            fixedValue;
        value           nonuniform List<scalar> 0();
    }
    outlet
    {
        type            inletOutlet;
        inletValue      uniform 0;
        value           nonuniform List<scalar> 5(6.56102e-14 1.16935e-13 2.02509e-13 1.03124e-12 1.32111e-11);
    }
    frontAndBack
    {
        type            empty;
    }
    procBoundary2to0
    {
        type            processor;
        value           nonuniform List<scalar> 5(5.55404e-14 1.39295e-13 5.96706e-13 6.63306e-12 9.29846e-11);
    }
    procBoundary2to3
    {
        type            processor;
        value           nonuniform List<scalar> 5(7.2406e-10 4.88916e-10 2.47107e-10 1.30456e-10 7.38604e-11);
    }
}


// ************************************************************************* //
