/*--------------------------------*- C++ -*----------------------------------*\
  =========                 |
  \\      /  F ield         | OpenFOAM: The Open Source CFD Toolbox
   \\    /   O peration     | Website:  https://openfoam.org
    \\  /    A nd           | Version:  8
     \\/     M anipulation  |
\*---------------------------------------------------------------------------*/
FoamFile
{
    version     2.0;
    format      ascii;
    class       volScalarField;
    location    "0.05";
    object      NH3;
}
// * * * * * * * * * * * * * * * * * * * * * * * * * * * * * * * * * * * * * //

dimensions      [0 0 0 0 0 0 0];

internalField   nonuniform List<scalar> 
25
(
2.28083e-08
1.68366e-07
7.10632e-07
1.86116e-06
2.74043e-06
1.98838e-08
1.49535e-07
6.36925e-07
1.66165e-06
2.37446e-06
1.54166e-08
1.19956e-07
5.26441e-07
1.37667e-06
1.92773e-06
1.0816e-08
9.13245e-08
4.23778e-07
1.10668e-06
1.55646e-06
7.49023e-09
6.88913e-08
3.27251e-07
8.99188e-07
1.25282e-06
)
;

boundaryField
{
    fuel
    {
        type            fixedValue;
        value           uniform 0;
    }
    air
    {
        type            fixedValue;
        value           nonuniform List<scalar> 0();
    }
    outlet
    {
        type            inletOutlet;
        inletValue      uniform 0;
        value           nonuniform List<scalar> 5(7.49023e-09 6.88913e-08 3.27251e-07 8.99188e-07 1.25282e-06);
    }
    frontAndBack
    {
        type            empty;
    }
    procBoundary2to0
    {
        type            processor;
        value           nonuniform List<scalar> 5(2.28157e-08 1.68422e-07 7.10861e-07 1.86173e-06 2.74119e-06);
    }
    procBoundary2to3
    {
        type            processor;
        value           nonuniform List<scalar> 5(2.37983e-06 1.84475e-06 1.34173e-06 1.01862e-06 8.33568e-07);
    }
}


// ************************************************************************* //
