/*--------------------------------*- C++ -*----------------------------------*\
  =========                 |
  \\      /  F ield         | OpenFOAM: The Open Source CFD Toolbox
   \\    /   O peration     | Website:  https://openfoam.org
    \\  /    A nd           | Version:  8
     \\/     M anipulation  |
\*---------------------------------------------------------------------------*/
FoamFile
{
    version     2.0;
    format      ascii;
    class       volScalarField;
    location    "0.05";
    object      NO2;
}
// * * * * * * * * * * * * * * * * * * * * * * * * * * * * * * * * * * * * * //

dimensions      [0 0 0 0 0 0 0];

internalField   nonuniform List<scalar> 
25
(
1.83533e-09
2.23782e-08
1.52132e-07
5.8659e-07
9.80489e-07
1.69937e-09
2.1055e-08
1.47034e-07
5.9553e-07
1.11173e-06
1.48726e-09
1.89363e-08
1.39122e-07
6.12225e-07
1.41049e-06
1.24816e-09
1.67132e-08
1.30433e-07
6.13345e-07
1.64358e-06
1.05514e-09
1.48527e-08
1.20975e-07
6.01293e-07
1.75445e-06
)
;

boundaryField
{
    fuel
    {
        type            fixedValue;
        value           uniform 0;
    }
    air
    {
        type            fixedValue;
        value           nonuniform List<scalar> 0();
    }
    outlet
    {
        type            inletOutlet;
        inletValue      uniform 0;
        value           nonuniform List<scalar> 5(1.05514e-09 1.48527e-08 1.20975e-07 6.01293e-07 1.75445e-06);
    }
    frontAndBack
    {
        type            empty;
    }
    procBoundary2to0
    {
        type            processor;
        value           nonuniform List<scalar> 5(1.83555e-09 2.23813e-08 1.52158e-07 5.86718e-07 9.80722e-07);
    }
    procBoundary2to3
    {
        type            processor;
        value           nonuniform List<scalar> 5(5.81899e-07 7.52421e-07 1.21389e-06 1.7e-06 1.951e-06);
    }
}


// ************************************************************************* //
