/*--------------------------------*- C++ -*----------------------------------*\
  =========                 |
  \\      /  F ield         | OpenFOAM: The Open Source CFD Toolbox
   \\    /   O peration     | Website:  https://openfoam.org
    \\  /    A nd           | Version:  8
     \\/     M anipulation  |
\*---------------------------------------------------------------------------*/
FoamFile
{
    version     2.0;
    format      ascii;
    class       volScalarField;
    location    "0.1";
    object      CH2;
}
// * * * * * * * * * * * * * * * * * * * * * * * * * * * * * * * * * * * * * //

dimensions      [0 0 0 0 0 0 0];

internalField   nonuniform List<scalar> 
25
(
9.35737e-14
5.27283e-12
2.66134e-10
7.01906e-09
6.83751e-08
9.25549e-14
5.18761e-12
2.60135e-10
6.8266e-09
6.9257e-08
9.31797e-14
5.18286e-12
2.58135e-10
6.73675e-09
6.90204e-08
9.29923e-14
5.12281e-12
2.54442e-10
6.61274e-09
6.72916e-08
9.3774e-14
5.1339e-12
2.5399e-10
6.57852e-09
6.70457e-08
)
;

boundaryField
{
    fuel
    {
        type            fixedValue;
        value           uniform 0;
    }
    air
    {
        type            fixedValue;
        value           nonuniform List<scalar> 0();
    }
    outlet
    {
        type            inletOutlet;
        inletValue      uniform 0;
        value           nonuniform List<scalar> 5(9.35737e-14 5.27283e-12 2.66134e-10 7.01906e-09 6.83751e-08);
    }
    frontAndBack
    {
        type            empty;
    }
    procBoundary0to1
    {
        type            processor;
        value           nonuniform List<scalar> 5(3.97575e-07 3.98423e-07 3.92525e-07 3.77004e-07 3.74684e-07);
    }
    procBoundary0to2
    {
        type            processor;
        value           nonuniform List<scalar> 5(9.51387e-14 5.23816e-12 2.59379e-10 6.7293e-09 6.88391e-08);
    }
}


// ************************************************************************* //
