/*--------------------------------*- C++ -*----------------------------------*\
  =========                 |
  \\      /  F ield         | OpenFOAM: The Open Source CFD Toolbox
   \\    /   O peration     | Website:  https://openfoam.org
    \\  /    A nd           | Version:  8
     \\/     M anipulation  |
\*---------------------------------------------------------------------------*/
FoamFile
{
    version     2.0;
    format      ascii;
    class       volScalarField;
    location    "0.1";
    object      CH2(S);
}
// * * * * * * * * * * * * * * * * * * * * * * * * * * * * * * * * * * * * * //

dimensions      [0 0 0 0 0 0 0];

internalField   nonuniform List<scalar> 
25
(
2.11407e-15
1.59301e-13
8.02501e-12
2.1097e-10
2.0445e-09
2.12473e-15
1.59688e-13
7.99909e-12
2.09609e-10
2.12061e-09
2.17015e-15
1.62506e-13
8.09165e-12
2.11169e-10
2.16107e-09
2.17538e-15
1.62851e-13
8.09233e-12
2.10577e-10
2.14393e-09
2.19404e-15
1.6389e-13
8.11272e-12
2.10436e-10
2.14601e-09
)
;

boundaryField
{
    fuel
    {
        type            fixedValue;
        value           uniform 0;
    }
    air
    {
        type            fixedValue;
        value           nonuniform List<scalar> 0();
    }
    outlet
    {
        type            inletOutlet;
        inletValue      uniform 0;
        value           nonuniform List<scalar> 5(2.11407e-15 1.59301e-13 8.02501e-12 2.1097e-10 2.0445e-09);
    }
    frontAndBack
    {
        type            empty;
    }
    procBoundary0to1
    {
        type            processor;
        value           nonuniform List<scalar> 5(1.18091e-08 1.21634e-08 1.22772e-08 1.20242e-08 1.20055e-08);
    }
    procBoundary0to2
    {
        type            processor;
        value           nonuniform List<scalar> 5(2.22798e-15 1.66513e-13 8.2483e-12 2.14229e-10 2.19121e-09);
    }
}


// ************************************************************************* //
