/*--------------------------------*- C++ -*----------------------------------*\
  =========                 |
  \\      /  F ield         | OpenFOAM: The Open Source CFD Toolbox
   \\    /   O peration     | Website:  https://openfoam.org
    \\  /    A nd           | Version:  8
     \\/     M anipulation  |
\*---------------------------------------------------------------------------*/
FoamFile
{
    version     2.0;
    format      ascii;
    class       volScalarField;
    location    "0.1";
    object      CH2CO;
}
// * * * * * * * * * * * * * * * * * * * * * * * * * * * * * * * * * * * * * //

dimensions      [0 0 0 0 0 0 0];

internalField   nonuniform List<scalar> 
25
(
1.48537e-06
1.49396e-05
7.79755e-05
0.000195468
0.000238769
1.55329e-06
1.52406e-05
7.69343e-05
0.000186171
0.000218856
1.63687e-06
1.55866e-05
7.61521e-05
0.000177955
0.000200521
1.68156e-06
1.57186e-05
7.53029e-05
0.000172497
0.000189218
1.71642e-06
1.58812e-05
7.50022e-05
0.000169691
0.000184549
)
;

boundaryField
{
    fuel
    {
        type            fixedValue;
        value           uniform 0;
    }
    air
    {
        type            fixedValue;
        value           nonuniform List<scalar> 0();
    }
    outlet
    {
        type            inletOutlet;
        inletValue      uniform 0;
        value           nonuniform List<scalar> 5(1.48537e-06 1.49396e-05 7.79755e-05 0.000195468 0.000238769);
    }
    frontAndBack
    {
        type            empty;
    }
    procBoundary0to1
    {
        type            processor;
        value           nonuniform List<scalar> 5(0.000212034 0.000175235 0.000147133 0.000128789 0.00012418);
    }
    procBoundary0to2
    {
        type            processor;
        value           nonuniform List<scalar> 5(1.71645e-06 1.58818e-05 7.50064e-05 0.000169711 0.000185073);
    }
}


// ************************************************************************* //
