/*--------------------------------*- C++ -*----------------------------------*\
  =========                 |
  \\      /  F ield         | OpenFOAM: The Open Source CFD Toolbox
   \\    /   O peration     | Website:  https://openfoam.org
    \\  /    A nd           | Version:  8
     \\/     M anipulation  |
\*---------------------------------------------------------------------------*/
FoamFile
{
    version     2.0;
    format      ascii;
    class       volScalarField;
    location    "0.1";
    object      CH2O;
}
// * * * * * * * * * * * * * * * * * * * * * * * * * * * * * * * * * * * * * //

dimensions      [0 0 0 0 0 0 0];

internalField   nonuniform List<scalar> 
25
(
6.38823e-07
5.85012e-06
2.71547e-05
5.76412e-05
5.02147e-05
6.15189e-07
5.59254e-06
2.5776e-05
5.52389e-05
4.92236e-05
5.85903e-07
5.32178e-06
2.43813e-05
5.27974e-05
4.83802e-05
5.56824e-07
5.04239e-06
2.31558e-05
5.09085e-05
4.77593e-05
5.39151e-07
4.88764e-06
2.24487e-05
4.97746e-05
4.73926e-05
)
;

boundaryField
{
    fuel
    {
        type            fixedValue;
        value           uniform 0;
    }
    air
    {
        type            fixedValue;
        value           nonuniform List<scalar> 0();
    }
    outlet
    {
        type            inletOutlet;
        inletValue      uniform 0;
        value           nonuniform List<scalar> 5(6.38823e-07 5.85012e-06 2.71547e-05 5.76412e-05 5.02147e-05);
    }
    frontAndBack
    {
        type            empty;
    }
    procBoundary0to1
    {
        type            processor;
        value           nonuniform List<scalar> 5(2.78971e-05 2.40448e-05 2.13346e-05 1.97517e-05 1.92992e-05);
    }
    procBoundary0to2
    {
        type            processor;
        value           nonuniform List<scalar> 5(5.39171e-07 4.88784e-06 2.24484e-05 4.97665e-05 4.74387e-05);
    }
}


// ************************************************************************* //
