/*--------------------------------*- C++ -*----------------------------------*\
  =========                 |
  \\      /  F ield         | OpenFOAM: The Open Source CFD Toolbox
   \\    /   O peration     | Website:  https://openfoam.org
    \\  /    A nd           | Version:  8
     \\/     M anipulation  |
\*---------------------------------------------------------------------------*/
FoamFile
{
    version     2.0;
    format      ascii;
    class       volScalarField;
    location    "0.1";
    object      CH3;
}
// * * * * * * * * * * * * * * * * * * * * * * * * * * * * * * * * * * * * * //

dimensions      [0 0 0 0 0 0 0];

internalField   nonuniform List<scalar> 
25
(
5.98862e-09
5.66359e-08
5.68385e-07
7.036e-06
4.7738e-05
6.06187e-09
5.62958e-08
5.52427e-07
6.65998e-06
4.61832e-05
6.19241e-09
5.65447e-08
5.45926e-07
6.44899e-06
4.46335e-05
6.26211e-09
5.66127e-08
5.42167e-07
6.32182e-06
4.31365e-05
6.32332e-09
5.68701e-08
5.41577e-07
6.27485e-06
4.28091e-05
)
;

boundaryField
{
    fuel
    {
        type            fixedValue;
        value           uniform 0;
    }
    air
    {
        type            fixedValue;
        value           nonuniform List<scalar> 0();
    }
    outlet
    {
        type            inletOutlet;
        inletValue      uniform 0;
        value           nonuniform List<scalar> 5(5.98862e-09 5.66359e-08 5.68385e-07 7.036e-06 4.7738e-05);
    }
    frontAndBack
    {
        type            empty;
    }
    procBoundary0to1
    {
        type            processor;
        value           nonuniform List<scalar> 5(0.000221956 0.000207846 0.000194968 0.000182924 0.000180512);
    }
    procBoundary0to2
    {
        type            processor;
        value           nonuniform List<scalar> 5(6.32281e-09 5.68828e-08 5.43734e-07 6.34311e-06 4.36265e-05);
    }
}


// ************************************************************************* //
