/*--------------------------------*- C++ -*----------------------------------*\
  =========                 |
  \\      /  F ield         | OpenFOAM: The Open Source CFD Toolbox
   \\    /   O peration     | Website:  https://openfoam.org
    \\  /    A nd           | Version:  8
     \\/     M anipulation  |
\*---------------------------------------------------------------------------*/
FoamFile
{
    version     2.0;
    format      ascii;
    class       volScalarField;
    location    "0.1";
    object      CN;
}
// * * * * * * * * * * * * * * * * * * * * * * * * * * * * * * * * * * * * * //

dimensions      [0 0 0 0 0 0 0];

internalField   nonuniform List<scalar> 
25
(
7.99405e-18
5.98852e-16
2.9758e-14
7.65421e-13
7.19062e-12
8.89636e-18
6.66579e-16
3.30914e-14
8.5492e-13
8.48711e-12
1.00656e-17
7.52629e-16
3.7357e-14
9.70305e-13
9.87946e-12
1.07783e-17
8.06922e-16
4.00835e-14
1.04271e-12
1.06221e-11
1.12408e-17
8.39926e-16
4.15938e-14
1.07967e-12
1.10262e-11
)
;

boundaryField
{
    fuel
    {
        type            fixedValue;
        value           uniform 0;
    }
    air
    {
        type            fixedValue;
        value           nonuniform List<scalar> 0();
    }
    outlet
    {
        type            inletOutlet;
        inletValue      uniform 0;
        value           nonuniform List<scalar> 5(7.99405e-18 5.98852e-16 2.9758e-14 7.65421e-13 7.19062e-12);
    }
    frontAndBack
    {
        type            empty;
    }
    procBoundary0to1
    {
        type            processor;
        value           nonuniform List<scalar> 5(3.98195e-11 4.75122e-11 5.58264e-11 5.96154e-11 6.17201e-11);
    }
    procBoundary0to2
    {
        type            processor;
        value           nonuniform List<scalar> 5(1.15276e-17 8.62082e-16 4.27387e-14 1.11167e-12 1.14057e-11);
    }
}


// ************************************************************************* //
