/*--------------------------------*- C++ -*----------------------------------*\
  =========                 |
  \\      /  F ield         | OpenFOAM: The Open Source CFD Toolbox
   \\    /   O peration     | Website:  https://openfoam.org
    \\  /    A nd           | Version:  8
     \\/     M anipulation  |
\*---------------------------------------------------------------------------*/
FoamFile
{
    version     2.0;
    format      ascii;
    class       volScalarField;
    location    "0.1";
    object      CO;
}
// * * * * * * * * * * * * * * * * * * * * * * * * * * * * * * * * * * * * * //

dimensions      [0 0 0 0 0 0 0];

internalField   nonuniform List<scalar> 
25
(
6.1435e-05
0.000731129
0.00516397
0.0193592
0.0333196
6.63387e-05
0.000772309
0.00530595
0.0194954
0.0339577
7.25974e-05
0.000820293
0.00549311
0.0198473
0.0346668
7.68663e-05
0.000853556
0.00562628
0.0201452
0.0351652
8.00885e-05
0.000879347
0.00571782
0.0202901
0.0354042
)
;

boundaryField
{
    fuel
    {
        type            fixedValue;
        value           uniform 0;
    }
    air
    {
        type            fixedValue;
        value           nonuniform List<scalar> 0();
    }
    outlet
    {
        type            inletOutlet;
        inletValue      uniform 0;
        value           nonuniform List<scalar> 5(6.1435e-05 0.000731129 0.00516397 0.0193592 0.0333196);
    }
    frontAndBack
    {
        type            empty;
    }
    procBoundary0to1
    {
        type            processor;
        value           nonuniform List<scalar> 5(0.0420619 0.0430516 0.0440779 0.0447575 0.0450303);
    }
    procBoundary0to2
    {
        type            processor;
        value           nonuniform List<scalar> 5(8.00862e-05 0.00087932 0.00571762 0.0202893 0.0353991);
    }
}


// ************************************************************************* //
