/*--------------------------------*- C++ -*----------------------------------*\
  =========                 |
  \\      /  F ield         | OpenFOAM: The Open Source CFD Toolbox
   \\    /   O peration     | Website:  https://openfoam.org
    \\  /    A nd           | Version:  8
     \\/     M anipulation  |
\*---------------------------------------------------------------------------*/
FoamFile
{
    version     2.0;
    format      ascii;
    class       volScalarField;
    location    "0.1";
    object      H2CN;
}
// * * * * * * * * * * * * * * * * * * * * * * * * * * * * * * * * * * * * * //

dimensions      [0 0 0 0 0 0 0];

internalField   nonuniform List<scalar> 
25
(
5.23979e-12
5.36914e-11
2.57268e-10
1.792e-11
2.48935e-12
5.85544e-12
5.77009e-11
2.64989e-10
1.91382e-11
2.63226e-12
6.64881e-12
6.22232e-11
2.74305e-10
1.99201e-11
2.74161e-12
7.20897e-12
6.55011e-11
2.82049e-10
2.06141e-11
2.82038e-12
7.59859e-12
6.77469e-11
2.85514e-10
2.10129e-11
2.859e-12
)
;

boundaryField
{
    fuel
    {
        type            fixedValue;
        value           uniform 0;
    }
    air
    {
        type            fixedValue;
        value           nonuniform List<scalar> 0();
    }
    outlet
    {
        type            inletOutlet;
        inletValue      uniform 0;
        value           nonuniform List<scalar> 5(5.23979e-12 5.36914e-11 2.57268e-10 1.792e-11 2.48935e-12);
    }
    frontAndBack
    {
        type            empty;
    }
    procBoundary0to1
    {
        type            processor;
        value           nonuniform List<scalar> 5(5.1264e-12 5.4608e-12 5.6757e-12 5.77107e-12 5.79672e-12);
    }
    procBoundary0to2
    {
        type            processor;
        value           nonuniform List<scalar> 5(7.5962e-12 6.77088e-11 2.85083e-10 2.09871e-11 2.85465e-12);
    }
}


// ************************************************************************* //
