/*--------------------------------*- C++ -*----------------------------------*\
  =========                 |
  \\      /  F ield         | OpenFOAM: The Open Source CFD Toolbox
   \\    /   O peration     | Website:  https://openfoam.org
    \\  /    A nd           | Version:  8
     \\/     M anipulation  |
\*---------------------------------------------------------------------------*/
FoamFile
{
    version     2.0;
    format      ascii;
    class       volScalarField;
    location    "0.1";
    object      H2O2;
}
// * * * * * * * * * * * * * * * * * * * * * * * * * * * * * * * * * * * * * //

dimensions      [0 0 0 0 0 0 0];

internalField   nonuniform List<scalar> 
25
(
3.231e-09
3.30694e-08
1.88662e-07
5.61736e-07
5.155e-07
3.34105e-09
3.38719e-08
1.90052e-07
5.55977e-07
5.13255e-07
3.49031e-09
3.48804e-08
1.92544e-07
5.54382e-07
5.0233e-07
3.58162e-09
3.54447e-08
1.93828e-07
5.52686e-07
4.90698e-07
3.66097e-09
3.60092e-08
1.94964e-07
5.50511e-07
4.8288e-07
)
;

boundaryField
{
    fuel
    {
        type            fixedValue;
        value           uniform 0;
    }
    air
    {
        type            fixedValue;
        value           nonuniform List<scalar> 0();
    }
    outlet
    {
        type            inletOutlet;
        inletValue      uniform 0;
        value           nonuniform List<scalar> 5(3.231e-09 3.30694e-08 1.88662e-07 5.61736e-07 5.155e-07);
    }
    frontAndBack
    {
        type            empty;
    }
    procBoundary0to1
    {
        type            processor;
        value           nonuniform List<scalar> 5(2.38268e-06 2.35286e-06 2.26291e-06 2.17901e-06 2.13108e-06);
    }
    procBoundary0to2
    {
        type            processor;
        value           nonuniform List<scalar> 5(3.66085e-09 3.60087e-08 1.9496e-07 5.50438e-07 4.82878e-07);
    }
}


// ************************************************************************* //
