/*--------------------------------*- C++ -*----------------------------------*\
  =========                 |
  \\      /  F ield         | OpenFOAM: The Open Source CFD Toolbox
   \\    /   O peration     | Website:  https://openfoam.org
    \\  /    A nd           | Version:  8
     \\/     M anipulation  |
\*---------------------------------------------------------------------------*/
FoamFile
{
    version     2.0;
    format      ascii;
    class       volScalarField;
    location    "0.1";
    object      HCCO;
}
// * * * * * * * * * * * * * * * * * * * * * * * * * * * * * * * * * * * * * //

dimensions      [0 0 0 0 0 0 0];

internalField   nonuniform List<scalar> 
25
(
7.12644e-13
3.93405e-11
2.00511e-09
5.36728e-08
5.33225e-07
6.63101e-13
3.55433e-11
1.793e-09
4.74592e-08
4.85951e-07
6.29712e-13
3.26754e-11
1.63023e-09
4.26098e-08
4.36285e-07
6.08365e-13
3.07138e-11
1.52549e-09
3.95913e-08
4.01437e-07
6.0408e-13
3.00347e-11
1.48525e-09
3.83881e-08
3.89724e-07
)
;

boundaryField
{
    fuel
    {
        type            fixedValue;
        value           uniform 0;
    }
    air
    {
        type            fixedValue;
        value           nonuniform List<scalar> 0();
    }
    outlet
    {
        type            inletOutlet;
        inletValue      uniform 0;
        value           nonuniform List<scalar> 5(7.12644e-13 3.93405e-11 2.00511e-09 5.36728e-08 5.33225e-07);
    }
    frontAndBack
    {
        type            empty;
    }
    procBoundary0to1
    {
        type            processor;
        value           nonuniform List<scalar> 5(3.14941e-06 2.79373e-06 2.44469e-06 2.20843e-06 2.13924e-06);
    }
    procBoundary0to2
    {
        type            processor;
        value           nonuniform List<scalar> 5(6.0854e-13 3.03677e-11 1.50249e-09 3.88719e-08 3.95527e-07);
    }
}


// ************************************************************************* //
