/*--------------------------------*- C++ -*----------------------------------*\
  =========                 |
  \\      /  F ield         | OpenFOAM: The Open Source CFD Toolbox
   \\    /   O peration     | Website:  https://openfoam.org
    \\  /    A nd           | Version:  8
     \\/     M anipulation  |
\*---------------------------------------------------------------------------*/
FoamFile
{
    version     2.0;
    format      ascii;
    class       volScalarField;
    location    "0.1";
    object      HCO;
}
// * * * * * * * * * * * * * * * * * * * * * * * * * * * * * * * * * * * * * //

dimensions      [0 0 0 0 0 0 0];

internalField   nonuniform List<scalar> 
25
(
4.30423e-13
4.24885e-12
8.18348e-11
1.18103e-09
9.95967e-09
4.63102e-13
4.36521e-12
7.85589e-11
1.0479e-09
8.9328e-09
5.11863e-13
4.59763e-12
7.79197e-11
9.64615e-10
8.14256e-09
5.50805e-13
4.83344e-12
7.87703e-11
9.30537e-10
7.78808e-09
5.75871e-13
4.98014e-12
7.93009e-11
9.12747e-10
7.63214e-09
)
;

boundaryField
{
    fuel
    {
        type            fixedValue;
        value           uniform 0;
    }
    air
    {
        type            fixedValue;
        value           nonuniform List<scalar> 0();
    }
    outlet
    {
        type            inletOutlet;
        inletValue      uniform 0;
        value           nonuniform List<scalar> 5(4.30423e-13 4.24885e-12 8.18348e-11 1.18103e-09 9.95967e-09);
    }
    frontAndBack
    {
        type            empty;
    }
    procBoundary0to1
    {
        type            processor;
        value           nonuniform List<scalar> 5(5.47488e-08 4.69296e-08 4.13111e-08 3.89578e-08 3.80455e-08);
    }
    procBoundary0to2
    {
        type            processor;
        value           nonuniform List<scalar> 5(5.74982e-13 4.96908e-12 7.90676e-11 9.09536e-10 7.59499e-09);
    }
}


// ************************************************************************* //
