/*--------------------------------*- C++ -*----------------------------------*\
  =========                 |
  \\      /  F ield         | OpenFOAM: The Open Source CFD Toolbox
   \\    /   O peration     | Website:  https://openfoam.org
    \\  /    A nd           | Version:  8
     \\/     M anipulation  |
\*---------------------------------------------------------------------------*/
FoamFile
{
    version     2.0;
    format      ascii;
    class       volScalarField;
    location    "0.1";
    object      HNCO;
}
// * * * * * * * * * * * * * * * * * * * * * * * * * * * * * * * * * * * * * //

dimensions      [0 0 0 0 0 0 0];

internalField   nonuniform List<scalar> 
25
(
1.03085e-08
9.14942e-08
4.26837e-07
9.75366e-07
1.11123e-06
1.10343e-08
9.59169e-08
4.32513e-07
9.49597e-07
1.03634e-06
1.19661e-08
1.00998e-07
4.40517e-07
9.29269e-07
9.67049e-07
1.25958e-08
1.04457e-07
4.45968e-07
9.17221e-07
9.26444e-07
1.30808e-08
1.07359e-07
4.50945e-07
9.12187e-07
9.09784e-07
)
;

boundaryField
{
    fuel
    {
        type            fixedValue;
        value           uniform 0;
    }
    air
    {
        type            fixedValue;
        value           nonuniform List<scalar> 0();
    }
    outlet
    {
        type            inletOutlet;
        inletValue      uniform 0;
        value           nonuniform List<scalar> 5(1.03085e-08 9.14942e-08 4.26837e-07 9.75366e-07 1.11123e-06);
    }
    frontAndBack
    {
        type            empty;
    }
    procBoundary0to1
    {
        type            processor;
        value           nonuniform List<scalar> 5(1.06608e-06 9.06869e-07 7.83336e-07 7.20962e-07 7.00486e-07);
    }
    procBoundary0to2
    {
        type            processor;
        value           nonuniform List<scalar> 5(1.30798e-08 1.07353e-07 4.50932e-07 9.12192e-07 9.09992e-07);
    }
}


// ************************************************************************* //
