/*--------------------------------*- C++ -*----------------------------------*\
  =========                 |
  \\      /  F ield         | OpenFOAM: The Open Source CFD Toolbox
   \\    /   O peration     | Website:  https://openfoam.org
    \\  /    A nd           | Version:  8
     \\/     M anipulation  |
\*---------------------------------------------------------------------------*/
FoamFile
{
    version     2.0;
    format      ascii;
    class       volScalarField;
    location    "0.1";
    object      HNO;
}
// * * * * * * * * * * * * * * * * * * * * * * * * * * * * * * * * * * * * * //

dimensions      [0 0 0 0 0 0 0];

internalField   nonuniform List<scalar> 
25
(
1.44533e-12
1.49755e-11
7.34763e-11
3.51418e-11
1.17392e-10
1.5512e-12
1.55567e-11
7.3091e-11
3.45465e-11
1.20695e-10
1.68344e-12
1.62142e-11
7.31179e-11
3.40778e-11
1.2332e-10
1.76529e-12
1.66015e-11
7.31391e-11
3.37166e-11
1.22093e-10
1.82166e-12
1.68808e-11
7.28881e-11
3.35811e-11
1.22495e-10
)
;

boundaryField
{
    fuel
    {
        type            fixedValue;
        value           uniform 0;
    }
    air
    {
        type            fixedValue;
        value           nonuniform List<scalar> 0();
    }
    outlet
    {
        type            inletOutlet;
        inletValue      uniform 0;
        value           nonuniform List<scalar> 5(1.44533e-12 1.49755e-11 7.34763e-11 3.51418e-11 1.17392e-10);
    }
    frontAndBack
    {
        type            empty;
    }
    procBoundary0to1
    {
        type            processor;
        value           nonuniform List<scalar> 5(5.74455e-10 6.00654e-10 6.19484e-10 6.07921e-10 6.09122e-10);
    }
    procBoundary0to2
    {
        type            processor;
        value           nonuniform List<scalar> 5(1.82133e-12 1.6874e-11 7.27892e-11 3.39076e-11 1.26404e-10);
    }
}


// ************************************************************************* //
