/*--------------------------------*- C++ -*----------------------------------*\
  =========                 |
  \\      /  F ield         | OpenFOAM: The Open Source CFD Toolbox
   \\    /   O peration     | Website:  https://openfoam.org
    \\  /    A nd           | Version:  8
     \\/     M anipulation  |
\*---------------------------------------------------------------------------*/
FoamFile
{
    version     2.0;
    format      ascii;
    class       volScalarField;
    location    "0.1";
    object      HO2;
}
// * * * * * * * * * * * * * * * * * * * * * * * * * * * * * * * * * * * * * //

dimensions      [0 0 0 0 0 0 0];

internalField   nonuniform List<scalar> 
25
(
2.04901e-09
2.38805e-08
2.06338e-07
5.78253e-07
7.09032e-07
2.14707e-09
2.45666e-08
2.08788e-07
5.67175e-07
6.9683e-07
2.27218e-09
2.54569e-08
2.13411e-07
5.59132e-07
6.84909e-07
2.34563e-09
2.5999e-08
2.16876e-07
5.54471e-07
6.76706e-07
2.39597e-09
2.63591e-08
2.18276e-07
5.51021e-07
6.71996e-07
)
;

boundaryField
{
    fuel
    {
        type            fixedValue;
        value           uniform 0;
    }
    air
    {
        type            fixedValue;
        value           nonuniform List<scalar> 0();
    }
    outlet
    {
        type            inletOutlet;
        inletValue      uniform 0;
        value           nonuniform List<scalar> 5(2.04901e-09 2.38805e-08 2.06338e-07 5.78253e-07 7.09032e-07);
    }
    frontAndBack
    {
        type            empty;
    }
    procBoundary0to1
    {
        type            processor;
        value           nonuniform List<scalar> 5(1.55621e-06 1.47055e-06 1.39394e-06 1.34524e-06 1.32576e-06);
    }
    procBoundary0to2
    {
        type            processor;
        value           nonuniform List<scalar> 5(2.39534e-09 2.6334e-08 2.17864e-07 5.50881e-07 6.72673e-07);
    }
}


// ************************************************************************* //
