/*--------------------------------*- C++ -*----------------------------------*\
  =========                 |
  \\      /  F ield         | OpenFOAM: The Open Source CFD Toolbox
   \\    /   O peration     | Website:  https://openfoam.org
    \\  /    A nd           | Version:  8
     \\/     M anipulation  |
\*---------------------------------------------------------------------------*/
FoamFile
{
    version     2.0;
    format      ascii;
    class       volScalarField;
    location    "0.1";
    object      HOCN;
}
// * * * * * * * * * * * * * * * * * * * * * * * * * * * * * * * * * * * * * //

dimensions      [0 0 0 0 0 0 0];

internalField   nonuniform List<scalar> 
25
(
1.08824e-11
8.50558e-11
3.57303e-10
8.26314e-10
1.07751e-09
1.13927e-11
8.78939e-11
3.6252e-10
8.31029e-10
1.10539e-09
1.20486e-11
9.11769e-11
3.69554e-10
8.42287e-10
1.14203e-09
1.24619e-11
9.31475e-11
3.73962e-10
8.51997e-10
1.17153e-09
1.27884e-11
9.49427e-11
3.77596e-10
8.57038e-10
1.18558e-09
)
;

boundaryField
{
    fuel
    {
        type            fixedValue;
        value           uniform 0;
    }
    air
    {
        type            fixedValue;
        value           nonuniform List<scalar> 0();
    }
    outlet
    {
        type            inletOutlet;
        inletValue      uniform 0;
        value           nonuniform List<scalar> 5(1.08824e-11 8.50558e-11 3.57303e-10 8.26314e-10 1.07751e-09);
    }
    frontAndBack
    {
        type            empty;
    }
    procBoundary0to1
    {
        type            processor;
        value           nonuniform List<scalar> 5(1.51464e-09 1.57847e-09 1.6701e-09 1.74284e-09 1.77275e-09);
    }
    procBoundary0to2
    {
        type            processor;
        value           nonuniform List<scalar> 5(1.27843e-11 9.49203e-11 3.77543e-10 8.57013e-10 1.18584e-09);
    }
}


// ************************************************************************* //
