/*--------------------------------*- C++ -*----------------------------------*\
  =========                 |
  \\      /  F ield         | OpenFOAM: The Open Source CFD Toolbox
   \\    /   O peration     | Website:  https://openfoam.org
    \\  /    A nd           | Version:  8
     \\/     M anipulation  |
\*---------------------------------------------------------------------------*/
FoamFile
{
    version     2.0;
    format      ascii;
    class       volScalarField;
    location    "0.1";
    object      N2O;
}
// * * * * * * * * * * * * * * * * * * * * * * * * * * * * * * * * * * * * * //

dimensions      [0 0 0 0 0 0 0];

internalField   nonuniform List<scalar> 
25
(
1.31763e-09
1.11643e-08
5.08946e-08
1.20279e-07
1.50049e-07
1.29927e-09
1.10108e-08
5.00549e-08
1.19435e-07
1.5461e-07
1.27882e-09
1.08675e-08
4.93034e-08
1.18987e-07
1.59061e-07
1.25299e-09
1.06439e-08
4.84488e-08
1.18426e-07
1.61599e-07
1.24016e-09
1.05492e-08
4.79789e-08
1.17841e-07
1.6246e-07
)
;

boundaryField
{
    fuel
    {
        type            fixedValue;
        value           uniform 0;
    }
    air
    {
        type            fixedValue;
        value           nonuniform List<scalar> 0();
    }
    outlet
    {
        type            inletOutlet;
        inletValue      uniform 0;
        value           nonuniform List<scalar> 5(1.31763e-09 1.11643e-08 5.08946e-08 1.20279e-07 1.50049e-07);
    }
    frontAndBack
    {
        type            empty;
    }
    procBoundary0to1
    {
        type            processor;
        value           nonuniform List<scalar> 5(1.52838e-07 1.66109e-07 1.78474e-07 1.85178e-07 1.87458e-07);
    }
    procBoundary0to2
    {
        type            processor;
        value           nonuniform List<scalar> 5(1.24003e-09 1.05481e-08 4.79758e-08 1.17848e-07 1.62518e-07);
    }
}


// ************************************************************************* //
