/*--------------------------------*- C++ -*----------------------------------*\
  =========                 |
  \\      /  F ield         | OpenFOAM: The Open Source CFD Toolbox
   \\    /   O peration     | Website:  https://openfoam.org
    \\  /    A nd           | Version:  8
     \\/     M anipulation  |
\*---------------------------------------------------------------------------*/
FoamFile
{
    version     2.0;
    format      ascii;
    class       volScalarField;
    location    "0.1";
    object      NH3;
}
// * * * * * * * * * * * * * * * * * * * * * * * * * * * * * * * * * * * * * //

dimensions      [0 0 0 0 0 0 0];

internalField   nonuniform List<scalar> 
25
(
1.42681e-08
1.29497e-07
6.98335e-07
2.16002e-06
3.30527e-06
1.54502e-08
1.37728e-07
7.22213e-07
2.16883e-06
3.29343e-06
1.69872e-08
1.47305e-07
7.52334e-07
2.1989e-06
3.28185e-06
1.80848e-08
1.54347e-07
7.75098e-07
2.22664e-06
3.27562e-06
1.89241e-08
1.59927e-07
7.91557e-07
2.24291e-06
3.27495e-06
)
;

boundaryField
{
    fuel
    {
        type            fixedValue;
        value           uniform 0;
    }
    air
    {
        type            fixedValue;
        value           nonuniform List<scalar> 0();
    }
    outlet
    {
        type            inletOutlet;
        inletValue      uniform 0;
        value           nonuniform List<scalar> 5(1.42681e-08 1.29497e-07 6.98335e-07 2.16002e-06 3.30527e-06);
    }
    frontAndBack
    {
        type            empty;
    }
    procBoundary0to1
    {
        type            processor;
        value           nonuniform List<scalar> 5(3.81776e-06 3.72877e-06 3.6315e-06 3.56837e-06 3.54115e-06);
    }
    procBoundary0to2
    {
        type            processor;
        value           nonuniform List<scalar> 5(1.89214e-08 1.59908e-07 7.91495e-07 2.2428e-06 3.2744e-06);
    }
}


// ************************************************************************* //
