/*--------------------------------*- C++ -*----------------------------------*\
  =========                 |
  \\      /  F ield         | OpenFOAM: The Open Source CFD Toolbox
   \\    /   O peration     | Website:  https://openfoam.org
    \\  /    A nd           | Version:  8
     \\/     M anipulation  |
\*---------------------------------------------------------------------------*/
FoamFile
{
    version     2.0;
    format      ascii;
    class       volScalarField;
    location    "0.1";
    object      O2;
}
// * * * * * * * * * * * * * * * * * * * * * * * * * * * * * * * * * * * * * //

dimensions      [0 0 0 0 0 0 0];

internalField   nonuniform List<scalar> 
25
(
0.000114063
0.00106613
0.0054733
0.0147079
0.0203387
0.000113165
0.00105627
0.00539919
0.0145692
0.0206963
0.000112307
0.00104847
0.00534073
0.0144965
0.021
0.000110757
0.00103251
0.0052707
0.0144309
0.021159
0.000110175
0.00102745
0.00523576
0.0143658
0.0211955
)
;

boundaryField
{
    fuel
    {
        type            fixedValue;
        value           uniform 0;
    }
    air
    {
        type            fixedValue;
        value           nonuniform List<scalar> 0();
    }
    outlet
    {
        type            inletOutlet;
        inletValue      uniform 0;
        value           nonuniform List<scalar> 5(0.000114063 0.00106613 0.0054733 0.0147079 0.0203387);
    }
    frontAndBack
    {
        type            empty;
    }
    procBoundary0to1
    {
        type            processor;
        value           nonuniform List<scalar> 5(0.0225799 0.0236728 0.0244869 0.0248849 0.025001);
    }
    procBoundary0to2
    {
        type            processor;
        value           nonuniform List<scalar> 5(0.000110174 0.00102745 0.00523564 0.0143652 0.0211991);
    }
}


// ************************************************************************* //
