/*--------------------------------*- C++ -*----------------------------------*\
  =========                 |
  \\      /  F ield         | OpenFOAM: The Open Source CFD Toolbox
   \\    /   O peration     | Website:  https://openfoam.org
    \\  /    A nd           | Version:  8
     \\/     M anipulation  |
\*---------------------------------------------------------------------------*/
FoamFile
{
    version     2.0;
    format      ascii;
    class       volScalarField;
    location    "0.2";
    object      C2H3;
}
// * * * * * * * * * * * * * * * * * * * * * * * * * * * * * * * * * * * * * //

dimensions      [0 0 0 0 0 0 0];

internalField   nonuniform List<scalar> 
25
(
2.65289e-07
2.65003e-08
1.0814e-09
1.54265e-11
1.18039e-13
2.75896e-07
2.76991e-08
1.13991e-09
1.64092e-11
1.26137e-13
3.06423e-07
3.11028e-08
1.30681e-09
1.90286e-11
1.4677e-13
3.73131e-07
3.81648e-08
1.63994e-09
2.41053e-11
1.85796e-13
4.65907e-07
4.76131e-08
2.09582e-09
3.1248e-11
2.41598e-13
)
;

boundaryField
{
    fuel
    {
        type            fixedValue;
        value           nonuniform List<scalar> 0();
    }
    air
    {
        type            fixedValue;
        value           uniform 0;
    }
    outlet
    {
        type            inletOutlet;
        inletValue      uniform 0;
        value           nonuniform List<scalar> 5(4.65907e-07 4.76131e-08 2.09582e-09 3.1248e-11 2.41598e-13);
    }
    frontAndBack
    {
        type            empty;
    }
    procBoundary3to1
    {
        type            processor;
        value           nonuniform List<scalar> 5(2.65276e-07 2.6499e-08 1.08134e-09 1.54257e-11 1.18032e-13);
    }
    procBoundary3to2
    {
        type            processor;
        value           nonuniform List<scalar> 5(5.07948e-08 5.27206e-08 5.77547e-08 6.83449e-08 8.55858e-08);
    }
}


// ************************************************************************* //
