/*--------------------------------*- C++ -*----------------------------------*\
  =========                 |
  \\      /  F ield         | OpenFOAM: The Open Source CFD Toolbox
   \\    /   O peration     | Website:  https://openfoam.org
    \\  /    A nd           | Version:  8
     \\/     M anipulation  |
\*---------------------------------------------------------------------------*/
FoamFile
{
    version     2.0;
    format      ascii;
    class       volScalarField;
    location    "0.2";
    object      C3H7;
}
// * * * * * * * * * * * * * * * * * * * * * * * * * * * * * * * * * * * * * //

dimensions      [0 0 0 0 0 0 0];

internalField   nonuniform List<scalar> 
25
(
2.65182e-11
2.82084e-12
8.96891e-13
6.77893e-13
5.57981e-14
2.7878e-11
2.96301e-12
8.45059e-13
6.97098e-13
5.74924e-14
3.24822e-11
3.40367e-12
4.41764e-13
7.39748e-13
6.10154e-14
4.54199e-11
4.71341e-12
4.51985e-13
8.04845e-13
6.59464e-14
6.92031e-11
6.92331e-12
5.57128e-13
8.94483e-13
7.25954e-14
)
;

boundaryField
{
    fuel
    {
        type            fixedValue;
        value           nonuniform List<scalar> 0();
    }
    air
    {
        type            fixedValue;
        value           uniform 0;
    }
    outlet
    {
        type            inletOutlet;
        inletValue      uniform 0;
        value           nonuniform List<scalar> 5(6.92031e-11 6.92331e-12 5.57128e-13 8.94483e-13 7.25954e-14);
    }
    frontAndBack
    {
        type            empty;
    }
    procBoundary3to1
    {
        type            processor;
        value           nonuniform List<scalar> 5(2.65171e-11 2.82073e-12 8.9692e-13 6.7817e-13 5.58433e-14);
    }
    procBoundary3to2
    {
        type            processor;
        value           nonuniform List<scalar> 5(5.85785e-11 5.86719e-11 5.88947e-11 6.01784e-11 8.30026e-11);
    }
}


// ************************************************************************* //
