/*--------------------------------*- C++ -*----------------------------------*\
  =========                 |
  \\      /  F ield         | OpenFOAM: The Open Source CFD Toolbox
   \\    /   O peration     | Website:  https://openfoam.org
    \\  /    A nd           | Version:  8
     \\/     M anipulation  |
\*---------------------------------------------------------------------------*/
FoamFile
{
    version     2.0;
    format      ascii;
    class       volScalarField;
    location    "0.2";
    object      CH;
}
// * * * * * * * * * * * * * * * * * * * * * * * * * * * * * * * * * * * * * //

dimensions      [0 0 0 0 0 0 0];

internalField   nonuniform List<scalar> 
25
(
1.4171e-09
1.40856e-10
5.73877e-12
8.1818e-14
6.25776e-16
1.40251e-09
1.39943e-10
5.7528e-12
8.28071e-14
6.36464e-16
1.37081e-09
1.38779e-10
5.84808e-12
8.53569e-14
6.58566e-16
1.33945e-09
1.38623e-10
6.03095e-12
8.93272e-14
6.90442e-16
1.26347e-09
1.36171e-10
6.17405e-12
9.3487e-14
7.27534e-16
)
;

boundaryField
{
    fuel
    {
        type            fixedValue;
        value           nonuniform List<scalar> 0();
    }
    air
    {
        type            fixedValue;
        value           uniform 0;
    }
    outlet
    {
        type            inletOutlet;
        inletValue      uniform 0;
        value           nonuniform List<scalar> 5(1.26347e-09 1.36171e-10 6.17405e-12 9.3487e-14 7.27534e-16);
    }
    frontAndBack
    {
        type            empty;
    }
    procBoundary3to1
    {
        type            processor;
        value           nonuniform List<scalar> 5(1.41712e-09 1.40857e-10 5.73875e-12 8.18176e-14 6.25772e-16);
    }
    procBoundary3to2
    {
        type            processor;
        value           nonuniform List<scalar> 5(2.67994e-10 2.64846e-10 2.57612e-10 2.48701e-10 2.34288e-10);
    }
}


// ************************************************************************* //
