/*--------------------------------*- C++ -*----------------------------------*\
  =========                 |
  \\      /  F ield         | OpenFOAM: The Open Source CFD Toolbox
   \\    /   O peration     | Website:  https://openfoam.org
    \\  /    A nd           | Version:  8
     \\/     M anipulation  |
\*---------------------------------------------------------------------------*/
FoamFile
{
    version     2.0;
    format      ascii;
    class       volScalarField;
    location    "0.2";
    object      CH2CO;
}
// * * * * * * * * * * * * * * * * * * * * * * * * * * * * * * * * * * * * * //

dimensions      [0 0 0 0 0 0 0];

internalField   nonuniform List<scalar> 
25
(
4.58094e-05
4.79101e-06
1.20018e-06
2.03106e-07
1.9932e-08
4.72357e-05
4.96553e-06
1.25066e-06
2.13655e-07
2.08812e-08
5.12819e-05
5.45677e-06
1.38203e-06
2.32888e-07
2.25277e-08
6.06699e-05
6.51275e-06
1.61112e-06
2.60698e-07
2.4727e-08
7.57742e-05
8.06334e-06
1.90464e-06
2.96613e-07
2.74311e-08
)
;

boundaryField
{
    fuel
    {
        type            fixedValue;
        value           nonuniform List<scalar> 0();
    }
    air
    {
        type            fixedValue;
        value           uniform 0;
    }
    outlet
    {
        type            inletOutlet;
        inletValue      uniform 0;
        value           nonuniform List<scalar> 5(7.57742e-05 8.06334e-06 1.90464e-06 2.96613e-07 2.74311e-08);
    }
    frontAndBack
    {
        type            empty;
    }
    procBoundary3to1
    {
        type            processor;
        value           nonuniform List<scalar> 5(4.58079e-05 4.79085e-06 1.20014e-06 2.03099e-07 1.99315e-08);
    }
    procBoundary3to2
    {
        type            processor;
        value           nonuniform List<scalar> 5(8.33645e-05 8.51383e-05 8.91107e-05 9.56572e-05 9.95798e-05);
    }
}


// ************************************************************************* //
