/*--------------------------------*- C++ -*----------------------------------*\
  =========                 |
  \\      /  F ield         | OpenFOAM: The Open Source CFD Toolbox
   \\    /   O peration     | Website:  https://openfoam.org
    \\  /    A nd           | Version:  8
     \\/     M anipulation  |
\*---------------------------------------------------------------------------*/
FoamFile
{
    version     2.0;
    format      ascii;
    class       volScalarField;
    location    "0.2";
    object      CO;
}
// * * * * * * * * * * * * * * * * * * * * * * * * * * * * * * * * * * * * * //

dimensions      [0 0 0 0 0 0 0];

internalField   nonuniform List<scalar> 
25
(
0.0540187
0.00578258
0.00157907
0.000241243
1.95341e-05
0.0538892
0.00579311
0.0015932
0.00024692
2.00025e-05
0.0536114
0.00584426
0.00163427
0.000254417
2.06104e-05
0.0532049
0.00594905
0.0016918
0.000262202
2.1231e-05
0.0528906
0.0061038
0.00176604
0.000274188
2.21261e-05
)
;

boundaryField
{
    fuel
    {
        type            fixedValue;
        value           nonuniform List<scalar> 0();
    }
    air
    {
        type            fixedValue;
        value           uniform 0;
    }
    outlet
    {
        type            inletOutlet;
        inletValue      uniform 0;
        value           nonuniform List<scalar> 5(0.0528906 0.0061038 0.00176604 0.000274188 2.21261e-05);
    }
    frontAndBack
    {
        type            empty;
    }
    procBoundary3to1
    {
        type            processor;
        value           nonuniform List<scalar> 5(0.0540189 0.00578257 0.00157906 0.000241242 1.9534e-05);
    }
    procBoundary3to2
    {
        type            processor;
        value           nonuniform List<scalar> 5(0.0471738 0.0470913 0.0469195 0.0466897 0.0465325);
    }
}


// ************************************************************************* //
