/*--------------------------------*- C++ -*----------------------------------*\
  =========                 |
  \\      /  F ield         | OpenFOAM: The Open Source CFD Toolbox
   \\    /   O peration     | Website:  https://openfoam.org
    \\  /    A nd           | Version:  8
     \\/     M anipulation  |
\*---------------------------------------------------------------------------*/
FoamFile
{
    version     2.0;
    format      ascii;
    class       volScalarField;
    location    "0.2";
    object      H2;
}
// * * * * * * * * * * * * * * * * * * * * * * * * * * * * * * * * * * * * * //

dimensions      [0 0 0 0 0 0 0];

internalField   nonuniform List<scalar> 
25
(
0.00411271
0.000432899
0.000115058
1.77806e-05
1.46006e-06
0.00413066
0.000436635
0.000116712
1.82781e-05
1.50086e-06
0.0041802
0.000447595
0.000121125
1.89947e-05
1.558e-06
0.00426708
0.000466982
0.000127283
1.97939e-05
1.62e-06
0.00438109
0.000491492
0.000134756
2.09155e-05
1.70314e-06
)
;

boundaryField
{
    fuel
    {
        type            fixedValue;
        value           nonuniform List<scalar> 0();
    }
    air
    {
        type            fixedValue;
        value           uniform 0;
    }
    outlet
    {
        type            inletOutlet;
        inletValue      uniform 0;
        value           nonuniform List<scalar> 5(0.00438109 0.000491492 0.000134756 2.09155e-05 1.70314e-06);
    }
    frontAndBack
    {
        type            empty;
    }
    procBoundary3to1
    {
        type            processor;
        value           nonuniform List<scalar> 5(0.00411269 0.000432894 0.000115057 1.77805e-05 1.46006e-06);
    }
    procBoundary3to2
    {
        type            processor;
        value           nonuniform List<scalar> 5(0.00363808 0.00365144 0.00368062 0.00372618 0.00377758);
    }
}


// ************************************************************************* //
