/*--------------------------------*- C++ -*----------------------------------*\
  =========                 |
  \\      /  F ield         | OpenFOAM: The Open Source CFD Toolbox
   \\    /   O peration     | Website:  https://openfoam.org
    \\  /    A nd           | Version:  8
     \\/     M anipulation  |
\*---------------------------------------------------------------------------*/
FoamFile
{
    version     2.0;
    format      ascii;
    class       volScalarField;
    location    "0.2";
    object      H2O;
}
// * * * * * * * * * * * * * * * * * * * * * * * * * * * * * * * * * * * * * //

dimensions      [0 0 0 0 0 0 0];

internalField   nonuniform List<scalar> 
25
(
0.108087
0.0657211
0.0180187
0.00277925
0.000227631
0.108224
0.0660906
0.0182355
0.00285216
0.000233687
0.108606
0.0672287
0.0188213
0.00295298
0.000241891
0.109249
0.0692377
0.0196353
0.00306146
0.000250527
0.11005
0.0717118
0.020625
0.00321747
0.000262289
)
;

boundaryField
{
    fuel
    {
        type            fixedValue;
        value           nonuniform List<scalar> 0();
    }
    air
    {
        type            fixedValue;
        value           uniform 0;
    }
    outlet
    {
        type            inletOutlet;
        inletValue      uniform 0;
        value           nonuniform List<scalar> 5(0.11005 0.0717118 0.020625 0.00321747 0.000262289);
    }
    frontAndBack
    {
        type            empty;
    }
    procBoundary3to1
    {
        type            processor;
        value           nonuniform List<scalar> 5(0.108087 0.0657206 0.0180186 0.00277923 0.000227631);
    }
    procBoundary3to2
    {
        type            processor;
        value           nonuniform List<scalar> 5(0.0950935 0.0952036 0.0954235 0.0957603 0.0961576);
    }
}


// ************************************************************************* //
