/*--------------------------------*- C++ -*----------------------------------*\
  =========                 |
  \\      /  F ield         | OpenFOAM: The Open Source CFD Toolbox
   \\    /   O peration     | Website:  https://openfoam.org
    \\  /    A nd           | Version:  8
     \\/     M anipulation  |
\*---------------------------------------------------------------------------*/
FoamFile
{
    version     2.0;
    format      ascii;
    class       volScalarField;
    location    "0.2";
    object      H2O2;
}
// * * * * * * * * * * * * * * * * * * * * * * * * * * * * * * * * * * * * * //

dimensions      [0 0 0 0 0 0 0];

internalField   nonuniform List<scalar> 
25
(
9.25772e-07
3.65985e-06
1.61398e-05
3.20436e-06
2.94392e-07
9.92191e-07
3.94209e-06
1.73563e-05
3.41206e-06
3.11846e-07
1.1332e-06
4.61661e-06
2.07302e-05
3.84073e-06
3.44438e-07
1.29288e-06
5.46628e-06
2.52478e-05
4.40146e-06
3.85436e-07
1.37196e-06
6.06212e-06
2.90674e-05
4.96691e-06
4.28116e-07
)
;

boundaryField
{
    fuel
    {
        type            fixedValue;
        value           nonuniform List<scalar> 0();
    }
    air
    {
        type            fixedValue;
        value           uniform 0;
    }
    outlet
    {
        type            inletOutlet;
        inletValue      uniform 0;
        value           nonuniform List<scalar> 5(1.37196e-06 6.06212e-06 2.90674e-05 4.96691e-06 4.28116e-07);
    }
    frontAndBack
    {
        type            empty;
    }
    procBoundary3to1
    {
        type            processor;
        value           nonuniform List<scalar> 5(9.25719e-07 3.65977e-06 1.61395e-05 3.20434e-06 2.94394e-07);
    }
    procBoundary3to2
    {
        type            processor;
        value           nonuniform List<scalar> 5(2.89735e-07 3.01313e-07 3.23603e-07 3.46921e-07 3.49757e-07);
    }
}


// ************************************************************************* //
