/*--------------------------------*- C++ -*----------------------------------*\
  =========                 |
  \\      /  F ield         | OpenFOAM: The Open Source CFD Toolbox
   \\    /   O peration     | Website:  https://openfoam.org
    \\  /    A nd           | Version:  8
     \\/     M anipulation  |
\*---------------------------------------------------------------------------*/
FoamFile
{
    version     2.0;
    format      ascii;
    class       volScalarField;
    location    "0.2";
    object      HCCO;
}
// * * * * * * * * * * * * * * * * * * * * * * * * * * * * * * * * * * * * * //

dimensions      [0 0 0 0 0 0 0];

internalField   nonuniform List<scalar> 
25
(
7.4481e-07
7.43565e-08
3.03373e-09
4.35478e-11
3.34993e-13
7.69852e-07
7.72598e-08
3.17944e-09
4.60518e-11
3.55884e-13
8.44808e-07
8.5837e-08
3.6087e-09
5.28638e-11
4.09866e-13
1.02416e-06
1.04808e-07
4.50537e-09
6.65702e-11
5.15547e-13
1.27572e-06
1.30434e-07
5.74326e-09
8.602e-11
6.67988e-13
)
;

boundaryField
{
    fuel
    {
        type            fixedValue;
        value           nonuniform List<scalar> 0();
    }
    air
    {
        type            fixedValue;
        value           uniform 0;
    }
    outlet
    {
        type            inletOutlet;
        inletValue      uniform 0;
        value           nonuniform List<scalar> 5(1.27572e-06 1.30434e-07 5.74326e-09 8.602e-11 6.67988e-13);
    }
    frontAndBack
    {
        type            empty;
    }
    procBoundary3to1
    {
        type            processor;
        value           nonuniform List<scalar> 5(7.44781e-07 7.43535e-08 3.03359e-09 4.35457e-11 3.34977e-13);
    }
    procBoundary3to2
    {
        type            processor;
        value           nonuniform List<scalar> 5(1.43811e-07 1.48378e-07 1.60812e-07 1.88345e-07 2.29422e-07);
    }
}


// ************************************************************************* //
