/*--------------------------------*- C++ -*----------------------------------*\
  =========                 |
  \\      /  F ield         | OpenFOAM: The Open Source CFD Toolbox
   \\    /   O peration     | Website:  https://openfoam.org
    \\  /    A nd           | Version:  8
     \\/     M anipulation  |
\*---------------------------------------------------------------------------*/
FoamFile
{
    version     2.0;
    format      ascii;
    class       volScalarField;
    location    "0.2";
    object      HCN;
}
// * * * * * * * * * * * * * * * * * * * * * * * * * * * * * * * * * * * * * //

dimensions      [0 0 0 0 0 0 0];

internalField   nonuniform List<scalar> 
25
(
7.29898e-06
7.61189e-07
2.00583e-07
2.93909e-08
2.30262e-09
7.09135e-06
7.43352e-07
1.98266e-07
2.95752e-08
2.32219e-09
6.65451e-06
7.10434e-07
1.95488e-07
2.95518e-08
2.32708e-09
6.0784e-06
6.69955e-07
1.91284e-07
2.9188e-08
2.31035e-09
5.53866e-06
6.36083e-07
1.88832e-07
2.92658e-08
2.32218e-09
)
;

boundaryField
{
    fuel
    {
        type            fixedValue;
        value           nonuniform List<scalar> 0();
    }
    air
    {
        type            fixedValue;
        value           uniform 0;
    }
    outlet
    {
        type            inletOutlet;
        inletValue      uniform 0;
        value           nonuniform List<scalar> 5(5.53866e-06 6.36083e-07 1.88832e-07 2.92658e-08 2.32218e-09);
    }
    frontAndBack
    {
        type            empty;
    }
    procBoundary3to1
    {
        type            processor;
        value           nonuniform List<scalar> 5(7.29923e-06 7.61208e-07 2.00586e-07 2.9391e-08 2.30262e-09);
    }
    procBoundary3to2
    {
        type            processor;
        value           nonuniform List<scalar> 5(6.20301e-06 6.07294e-06 5.82522e-06 5.50768e-06 5.22679e-06);
    }
}


// ************************************************************************* //
