/*--------------------------------*- C++ -*----------------------------------*\
  =========                 |
  \\      /  F ield         | OpenFOAM: The Open Source CFD Toolbox
   \\    /   O peration     | Website:  https://openfoam.org
    \\  /    A nd           | Version:  8
     \\/     M anipulation  |
\*---------------------------------------------------------------------------*/
FoamFile
{
    version     2.0;
    format      ascii;
    class       volScalarField;
    location    "0.2";
    object      HCNO;
}
// * * * * * * * * * * * * * * * * * * * * * * * * * * * * * * * * * * * * * //

dimensions      [0 0 0 0 0 0 0];

internalField   nonuniform List<scalar> 
25
(
2.62295e-08
2.95787e-09
9.14154e-10
1.86983e-10
2.32435e-11
2.64973e-08
2.99327e-09
9.42493e-10
1.94444e-10
2.39561e-11
2.76231e-08
3.13414e-09
1.02597e-09
2.07432e-10
2.50894e-11
3.14926e-08
3.54634e-09
1.15838e-09
2.24508e-10
2.64838e-11
3.84522e-08
4.2338e-09
1.33335e-09
2.4753e-10
2.82782e-11
)
;

boundaryField
{
    fuel
    {
        type            fixedValue;
        value           nonuniform List<scalar> 0();
    }
    air
    {
        type            fixedValue;
        value           uniform 0;
    }
    outlet
    {
        type            inletOutlet;
        inletValue      uniform 0;
        value           nonuniform List<scalar> 5(3.84522e-08 4.2338e-09 1.33335e-09 2.4753e-10 2.82782e-11);
    }
    frontAndBack
    {
        type            empty;
    }
    procBoundary3to1
    {
        type            processor;
        value           nonuniform List<scalar> 5(2.62294e-08 2.95787e-09 9.14137e-10 1.86973e-10 2.32422e-11);
    }
    procBoundary3to2
    {
        type            processor;
        value           nonuniform List<scalar> 5(3.47852e-08 3.52659e-08 3.65249e-08 3.91788e-08 4.25397e-08);
    }
}


// ************************************************************************* //
