/*--------------------------------*- C++ -*----------------------------------*\
  =========                 |
  \\      /  F ield         | OpenFOAM: The Open Source CFD Toolbox
   \\    /   O peration     | Website:  https://openfoam.org
    \\  /    A nd           | Version:  8
     \\/     M anipulation  |
\*---------------------------------------------------------------------------*/
FoamFile
{
    version     2.0;
    format      ascii;
    class       volScalarField;
    location    "0.2";
    object      HO2;
}
// * * * * * * * * * * * * * * * * * * * * * * * * * * * * * * * * * * * * * //

dimensions      [0 0 0 0 0 0 0];

internalField   nonuniform List<scalar> 
25
(
9.71647e-07
3.50723e-06
1.14663e-05
1.01255e-06
7.27644e-08
9.8924e-07
3.57902e-06
1.18168e-05
1.0492e-06
7.50469e-08
1.02597e-06
3.74675e-06
1.28124e-05
1.11443e-06
7.89415e-08
1.07291e-06
3.97524e-06
1.42803e-05
1.20668e-06
8.4095e-08
1.08899e-06
4.10693e-06
1.54046e-05
1.31089e-06
9.00551e-08
)
;

boundaryField
{
    fuel
    {
        type            fixedValue;
        value           nonuniform List<scalar> 0();
    }
    air
    {
        type            fixedValue;
        value           uniform 0;
    }
    outlet
    {
        type            inletOutlet;
        inletValue      uniform 0;
        value           nonuniform List<scalar> 5(1.08899e-06 4.10693e-06 1.54046e-05 1.31089e-06 9.00551e-08);
    }
    frontAndBack
    {
        type            empty;
    }
    procBoundary3to1
    {
        type            processor;
        value           nonuniform List<scalar> 5(9.71623e-07 3.50721e-06 1.14661e-05 1.01253e-06 7.27637e-08);
    }
    procBoundary3to2
    {
        type            processor;
        value           nonuniform List<scalar> 5(8.1095e-07 8.09409e-07 8.03898e-07 7.89176e-07 6.81146e-07);
    }
}


// ************************************************************************* //
