/*--------------------------------*- C++ -*----------------------------------*\
  =========                 |
  \\      /  F ield         | OpenFOAM: The Open Source CFD Toolbox
   \\    /   O peration     | Website:  https://openfoam.org
    \\  /    A nd           | Version:  8
     \\/     M anipulation  |
\*---------------------------------------------------------------------------*/
FoamFile
{
    version     2.0;
    format      ascii;
    class       volScalarField;
    location    "0.2";
    object      HOCN;
}
// * * * * * * * * * * * * * * * * * * * * * * * * * * * * * * * * * * * * * //

dimensions      [0 0 0 0 0 0 0];

internalField   nonuniform List<scalar> 
25
(
4.11174e-09
4.71947e-10
1.22218e-10
1.7613e-11
1.38691e-12
3.93947e-09
4.49242e-10
1.18352e-10
1.74334e-11
1.37873e-12
3.56872e-09
4.04798e-10
1.11929e-10
1.68883e-11
1.34554e-12
3.07845e-09
3.52597e-10
1.03705e-10
1.60332e-11
1.29318e-12
2.63013e-09
3.11903e-10
9.74743e-11
1.54976e-11
1.26046e-12
)
;

boundaryField
{
    fuel
    {
        type            fixedValue;
        value           nonuniform List<scalar> 0();
    }
    air
    {
        type            fixedValue;
        value           uniform 0;
    }
    outlet
    {
        type            inletOutlet;
        inletValue      uniform 0;
        value           nonuniform List<scalar> 5(2.63013e-09 3.11903e-10 9.74743e-11 1.54976e-11 1.26046e-12);
    }
    frontAndBack
    {
        type            empty;
    }
    procBoundary3to1
    {
        type            processor;
        value           nonuniform List<scalar> 5(4.11196e-09 4.71976e-10 1.22224e-10 1.76136e-11 1.38698e-12);
    }
    procBoundary3to2
    {
        type            processor;
        value           nonuniform List<scalar> 5(2.76619e-09 2.66647e-09 2.47181e-09 2.21648e-09 1.9533e-09);
    }
}


// ************************************************************************* //
