/*--------------------------------*- C++ -*----------------------------------*\
  =========                 |
  \\      /  F ield         | OpenFOAM: The Open Source CFD Toolbox
   \\    /   O peration     | Website:  https://openfoam.org
    \\  /    A nd           | Version:  8
     \\/     M anipulation  |
\*---------------------------------------------------------------------------*/
FoamFile
{
    version     2.0;
    format      ascii;
    class       volScalarField;
    location    "0.2";
    object      NH3;
}
// * * * * * * * * * * * * * * * * * * * * * * * * * * * * * * * * * * * * * //

dimensions      [0 0 0 0 0 0 0];

internalField   nonuniform List<scalar> 
25
(
2.38032e-06
2.48922e-07
6.58155e-08
1.02598e-08
8.76704e-10
2.37723e-06
2.49762e-07
6.66243e-08
1.05351e-08
9.00463e-10
2.38349e-06
2.53825e-07
6.89931e-08
1.09307e-08
9.33555e-10
2.41003e-06
2.62295e-07
7.22787e-08
1.13632e-08
9.68981e-10
2.45031e-06
2.73442e-07
7.63109e-08
1.19769e-08
1.01644e-09
)
;

boundaryField
{
    fuel
    {
        type            fixedValue;
        value           nonuniform List<scalar> 0();
    }
    air
    {
        type            fixedValue;
        value           uniform 0;
    }
    outlet
    {
        type            inletOutlet;
        inletValue      uniform 0;
        value           nonuniform List<scalar> 5(2.45031e-06 2.73442e-07 7.63109e-08 1.19769e-08 1.01644e-09);
    }
    frontAndBack
    {
        type            empty;
    }
    procBoundary3to1
    {
        type            processor;
        value           nonuniform List<scalar> 5(2.38034e-06 2.48923e-07 6.58155e-08 1.02598e-08 8.7671e-10);
    }
    procBoundary3to2
    {
        type            processor;
        value           nonuniform List<scalar> 5(2.09915e-06 2.09961e-06 2.10468e-06 2.11773e-06 2.13585e-06);
    }
}


// ************************************************************************* //
