/*--------------------------------*- C++ -*----------------------------------*\
  =========                 |
  \\      /  F ield         | OpenFOAM: The Open Source CFD Toolbox
   \\    /   O peration     | Website:  https://openfoam.org
    \\  /    A nd           | Version:  8
     \\/     M anipulation  |
\*---------------------------------------------------------------------------*/
FoamFile
{
    version     2.0;
    format      ascii;
    class       volScalarField;
    location    "0.2";
    object      O;
}
// * * * * * * * * * * * * * * * * * * * * * * * * * * * * * * * * * * * * * //

dimensions      [0 0 0 0 0 0 0];

internalField   nonuniform List<scalar> 
25
(
6.59258e-06
2.65287e-05
1.08223e-06
2.05057e-08
8.38635e-10
6.69177e-06
2.69461e-05
1.10894e-06
2.09162e-08
8.48088e-10
6.9674e-06
2.83333e-05
1.19276e-06
2.22761e-08
8.85029e-10
7.47969e-06
3.13265e-05
1.35544e-06
2.49153e-08
9.58828e-10
8.01659e-06
3.56708e-05
1.58779e-06
2.88002e-08
1.06855e-09
)
;

boundaryField
{
    fuel
    {
        type            fixedValue;
        value           nonuniform List<scalar> 0();
    }
    air
    {
        type            fixedValue;
        value           uniform 0;
    }
    outlet
    {
        type            inletOutlet;
        inletValue      uniform 0;
        value           nonuniform List<scalar> 5(8.01659e-06 3.56708e-05 1.58779e-06 2.88002e-08 1.06855e-09);
    }
    frontAndBack
    {
        type            empty;
    }
    procBoundary3to1
    {
        type            processor;
        value           nonuniform List<scalar> 5(6.59249e-06 2.65281e-05 1.0822e-06 2.05052e-08 8.38614e-10);
    }
    procBoundary3to2
    {
        type            processor;
        value           nonuniform List<scalar> 5(1.25278e-06 1.2693e-06 1.30888e-06 1.37799e-06 1.44435e-06);
    }
}


// ************************************************************************* //
