/*--------------------------------*- C++ -*----------------------------------*\
  =========                 |
  \\      /  F ield         | OpenFOAM: The Open Source CFD Toolbox
   \\    /   O peration     | Website:  https://openfoam.org
    \\  /    A nd           | Version:  8
     \\/     M anipulation  |
\*---------------------------------------------------------------------------*/
FoamFile
{
    version     2.0;
    format      ascii;
    class       volScalarField;
    location    "0.2";
    object      O2;
}
// * * * * * * * * * * * * * * * * * * * * * * * * * * * * * * * * * * * * * //

dimensions      [0 0 0 0 0 0 0];

internalField   nonuniform List<scalar> 
25
(
0.0284996
0.105875
0.195934
0.224687
0.229556
0.0282683
0.105171
0.195522
0.224548
0.229544
0.0275799
0.102999
0.194411
0.224356
0.229528
0.0263503
0.0991573
0.192869
0.224151
0.229512
0.0247328
0.0944172
0.190999
0.223856
0.229489
)
;

boundaryField
{
    fuel
    {
        type            fixedValue;
        value           nonuniform List<scalar> 0();
    }
    air
    {
        type            fixedValue;
        value           uniform 0.23;
    }
    outlet
    {
        type            inletOutlet;
        inletValue      uniform 0;
        value           nonuniform List<scalar> 5(0.0247328 0.0944172 0.190999 0.223856 0.229489);
    }
    frontAndBack
    {
        type            empty;
    }
    procBoundary3to1
    {
        type            processor;
        value           nonuniform List<scalar> 5(0.0284999 0.105876 0.195934 0.224687 0.229556);
    }
    procBoundary3to2
    {
        type            processor;
        value           nonuniform List<scalar> 5(0.024356 0.0241812 0.0237637 0.0231029 0.0223909);
    }
}


// ************************************************************************* //
