/*--------------------------------*- C++ -*----------------------------------*\
  =========                 |
  \\      /  F ield         | OpenFOAM: The Open Source CFD Toolbox
   \\    /   O peration     | Website:  https://openfoam.org
    \\  /    A nd           | Version:  8
     \\/     M anipulation  |
\*---------------------------------------------------------------------------*/
FoamFile
{
    version     2.0;
    format      ascii;
    class       surfaceScalarField;
    location    "0.2";
    object      phi;
}
// * * * * * * * * * * * * * * * * * * * * * * * * * * * * * * * * * * * * * //

dimensions      [1 0 -1 0 0 0 0];

internalField   nonuniform List<scalar> 
40
(
-1.80175e-06
5.6807e-07
-2.39163e-06
5.87331e-07
-3.34403e-06
9.42826e-07
-4.33612e-06
9.7861e-07
3.95965e-07
-1.7934e-06
1.13389e-06
-2.39325e-06
1.18472e-06
-3.32411e-06
1.86427e-06
-4.23672e-06
1.8775e-06
8.91264e-07
-1.75023e-06
1.68361e-06
-2.33637e-06
1.76961e-06
-3.20618e-06
2.72416e-06
-4.21214e-06
2.8696e-06
1.4112e-06
-1.64574e-06
2.17386e-06
-2.21224e-06
2.33262e-06
-3.10535e-06
3.60753e-06
-4.26887e-06
4.01924e-06
1.87432e-06
-1.42209e-06
-1.98188e-06
-2.93668e-06
-4.18545e-06
)
;

boundaryField
{
    fuel
    {
        type            calculated;
        value           nonuniform List<scalar> 0();
    }
    air
    {
        type            calculated;
        value           nonuniform List<scalar> 5(-4.73529e-06 -4.73529e-06 -4.73529e-06 -4.73529e-06 -4.73529e-06);
    }
    outlet
    {
        type            calculated;
        value           nonuniform List<scalar> 5(2.49735e-06 2.89006e-06 4.5532e-06 5.25365e-06 2.42074e-06);
    }
    frontAndBack
    {
        type            empty;
        value           nonuniform List<scalar> 0();
    }
    procBoundary3to1
    {
        type            processor;
        value           nonuniform List<scalar> 5(-6.70113e-12 -8.48023e-12 -9.79624e-13 4.16047e-12 3.19712e-12);
    }
    procBoundary3to2
    {
        type            processor;
        value           nonuniform List<scalar> 5(1.23433e-06 1.22826e-06 1.20136e-06 1.15707e-06 1.10017e-06);
    }
}


// ************************************************************************* //
