/*--------------------------------*- C++ -*----------------------------------*\
  =========                 |
  \\      /  F ield         | OpenFOAM: The Open Source CFD Toolbox
   \\    /   O peration     | Website:  https://openfoam.org
    \\  /    A nd           | Version:  8
     \\/     M anipulation  |
\*---------------------------------------------------------------------------*/
FoamFile
{
    version     2.0;
    format      ascii;
    class       volVectorField;
    location    "0.2";
    object      U;
}
// * * * * * * * * * * * * * * * * * * * * * * * * * * * * * * * * * * * * * //

dimensions      [0 1 -1 0 0 0 0];

internalField   nonuniform List<vector> 
25
(
(-0.201278 0.0389777 0)
(-0.181725 0.03172 3.47642e-29)
(-0.111989 0.0224734 0)
(-0.0987696 0.0139632 -2.205e-29)
(-0.102075 0.00353168 0)
(-0.199787 0.116504 0)
(-0.182434 0.0959906 0)
(-0.110466 0.0670656 0)
(-0.0971495 0.0352575 0)
(-0.103175 0.0141737 0)
(-0.195201 0.194488 0)
(-0.181435 0.164518 0)
(-0.107009 0.114805 0)
(-0.097769 0.0618292 0)
(-0.102827 0.0245476 0)
(-0.185879 0.261691 0)
(-0.1751 0.226113 0)
(-0.104521 0.149729 0)
(-0.100584 0.0837137 0)
(-0.10181 0.0357958 0)
(-0.168336 0.341247 0)
(-0.157909 0.325778 0)
(-0.10106 0.231997 0)
(-0.0992708 0.135266 0)
(-0.100596 0.0506405 0)
)
;

boundaryField
{
    fuel
    {
        type            fixedValue;
        value           nonuniform List<vector> 0();
    }
    air
    {
        type            fixedValue;
        value           uniform (-0.1 0 0);
    }
    outlet
    {
        type            pressureInletOutletVelocity;
        value           nonuniform List<vector> 5((-0.168336 0.341247 0) (-0.157909 0.325778 0) (-0.10106 0.231997 0) (-0.0992708 0.135266 0) (-0.100596 0.0506405 0));
    }
    frontAndBack
    {
        type            empty;
    }
    procBoundary3to1
    {
        type            processor;
        value           nonuniform List<vector> 5((-0.201279 -0.0389763 0) (-0.181725 -0.0317185 3.4764e-29) (-0.111988 -0.0224734 0) (-0.0987695 -0.0139635 -2.205e-29) (-0.102075 -0.00353177 0));
    }
    procBoundary3to2
    {
        type            processor;
        value           nonuniform List<vector> 5((-0.114916 0.0407517 0) (-0.114607 0.12112 0) (-0.112318 0.202182 0) (-0.110679 0.270149 0) (-0.111452 0.357168 0));
    }
}


// ************************************************************************* //
