/*--------------------------------*- C++ -*----------------------------------*\
  =========                 |
  \\      /  F ield         | OpenFOAM: The Open Source CFD Toolbox
   \\    /   O peration     | Website:  https://openfoam.org
    \\  /    A nd           | Version:  8
     \\/     M anipulation  |
\*---------------------------------------------------------------------------*/
FoamFile
{
    version     2.0;
    format      ascii;
    class       volScalarField;
    location    "0.05";
    object      C;
}
// * * * * * * * * * * * * * * * * * * * * * * * * * * * * * * * * * * * * * //

dimensions      [0 0 0 0 0 0 0];

internalField   nonuniform List<scalar> 
25
(
3.36187e-21
2.5347e-19
1.2243e-17
3.70947e-16
5.40296e-15
1.14487e-21
8.38302e-20
3.8335e-18
1.05267e-16
1.30343e-15
2.9469e-22
2.10715e-20
9.10636e-19
2.23888e-17
2.39735e-16
6.96103e-23
4.94041e-21
2.06289e-19
4.59752e-18
4.40696e-17
1.60212e-23
1.1254e-21
4.46122e-20
9.91123e-19
8.94104e-18
)
;

boundaryField
{
    fuel
    {
        type            fixedValue;
        value           uniform 0;
    }
    air
    {
        type            fixedValue;
        value           nonuniform List<scalar> 0();
    }
    outlet
    {
        type            inletOutlet;
        inletValue      uniform 0;
        value           nonuniform List<scalar> 5(1.60212e-23 1.1254e-21 4.46122e-20 9.91123e-19 8.94104e-18);
    }
    frontAndBack
    {
        type            empty;
    }
    procBoundary2to0
    {
        type            processor;
        value           nonuniform List<scalar> 5(3.36212e-21 2.53488e-19 1.22439e-17 3.70977e-16 5.40327e-15);
    }
    procBoundary2to3
    {
        type            processor;
        value           nonuniform List<scalar> 5(4.4916e-14 7.95324e-15 1.01954e-15 1.48834e-16 2.6508e-17);
    }
}


// ************************************************************************* //
