/*--------------------------------*- C++ -*----------------------------------*\
  =========                 |
  \\      /  F ield         | OpenFOAM: The Open Source CFD Toolbox
   \\    /   O peration     | Website:  https://openfoam.org
    \\  /    A nd           | Version:  8
     \\/     M anipulation  |
\*---------------------------------------------------------------------------*/
FoamFile
{
    version     2.0;
    format      ascii;
    class       volScalarField;
    location    "0.05";
    object      C2H4;
}
// * * * * * * * * * * * * * * * * * * * * * * * * * * * * * * * * * * * * * //

dimensions      [0 0 0 0 0 0 0];

internalField   nonuniform List<scalar> 
25
(
5.43413e-05
0.000206273
0.000479866
0.00102768
0.00204004
5.04128e-05
0.000192722
0.000449361
0.000951334
0.0018468
4.28613e-05
0.000167066
0.000393538
0.000803001
0.00144248
3.24391e-05
0.000136321
0.000333861
0.000650637
0.00107832
2.33252e-05
0.000108944
0.000270773
0.000528976
0.000799579
)
;

boundaryField
{
    fuel
    {
        type            fixedValue;
        value           uniform 0;
    }
    air
    {
        type            fixedValue;
        value           nonuniform List<scalar> 0();
    }
    outlet
    {
        type            inletOutlet;
        inletValue      uniform 0;
        value           nonuniform List<scalar> 5(2.33252e-05 0.000108944 0.000270773 0.000528976 0.000799579);
    }
    frontAndBack
    {
        type            empty;
    }
    procBoundary2to0
    {
        type            processor;
        value           nonuniform List<scalar> 5(5.43416e-05 0.000206274 0.000479866 0.00102769 0.00204005);
    }
    procBoundary2to3
    {
        type            processor;
        value           nonuniform List<scalar> 5(0.00307934 0.00260739 0.00174694 0.00110418 0.000763781);
    }
}


// ************************************************************************* //
