/*--------------------------------*- C++ -*----------------------------------*\
  =========                 |
  \\      /  F ield         | OpenFOAM: The Open Source CFD Toolbox
   \\    /   O peration     | Website:  https://openfoam.org
    \\  /    A nd           | Version:  8
     \\/     M anipulation  |
\*---------------------------------------------------------------------------*/
FoamFile
{
    version     2.0;
    format      ascii;
    class       volScalarField;
    location    "0.05";
    object      C2H5;
}
// * * * * * * * * * * * * * * * * * * * * * * * * * * * * * * * * * * * * * //

dimensions      [0 0 0 0 0 0 0];

internalField   nonuniform List<scalar> 
25
(
2.55299e-09
6.04235e-09
8.25155e-09
3.20336e-08
3.14689e-07
2.27015e-09
5.29242e-09
6.64513e-09
2.26085e-08
2.02432e-07
1.8012e-09
4.15297e-09
4.60932e-09
1.2892e-08
1.01371e-07
1.28055e-09
3.09739e-09
3.13153e-09
7.26804e-09
5.06157e-08
9.09057e-10
2.34461e-09
2.04415e-09
4.54009e-09
3.07065e-08
)
;

boundaryField
{
    fuel
    {
        type            fixedValue;
        value           uniform 0;
    }
    air
    {
        type            fixedValue;
        value           nonuniform List<scalar> 0();
    }
    outlet
    {
        type            inletOutlet;
        inletValue      uniform 0;
        value           nonuniform List<scalar> 5(9.09057e-10 2.34461e-09 2.04415e-09 4.54009e-09 3.07065e-08);
    }
    frontAndBack
    {
        type            empty;
    }
    procBoundary2to0
    {
        type            processor;
        value           nonuniform List<scalar> 5(2.55262e-09 6.04188e-09 8.25154e-09 3.20358e-08 3.14706e-07);
    }
    procBoundary2to3
    {
        type            processor;
        value           nonuniform List<scalar> 5(2.31869e-06 1.56385e-06 6.92524e-07 2.85121e-07 1.40719e-07);
    }
}


// ************************************************************************* //
