/*--------------------------------*- C++ -*----------------------------------*\
  =========                 |
  \\      /  F ield         | OpenFOAM: The Open Source CFD Toolbox
   \\    /   O peration     | Website:  https://openfoam.org
    \\  /    A nd           | Version:  8
     \\/     M anipulation  |
\*---------------------------------------------------------------------------*/
FoamFile
{
    version     2.0;
    format      ascii;
    class       volScalarField;
    location    "0.05";
    object      C2H6;
}
// * * * * * * * * * * * * * * * * * * * * * * * * * * * * * * * * * * * * * //

dimensions      [0 0 0 0 0 0 0];

internalField   nonuniform List<scalar> 
25
(
2.06322e-05
7.56739e-05
0.000178599
0.000401402
0.000797585
1.95144e-05
7.19558e-05
0.000171429
0.000391649
0.000803885
1.72261e-05
6.44659e-05
0.000156475
0.000358578
0.000738131
1.37502e-05
5.47769e-05
0.00013862
0.000313845
0.000637231
1.03781e-05
4.55517e-05
0.000118129
0.000271996
0.00053479
)
;

boundaryField
{
    fuel
    {
        type            fixedValue;
        value           uniform 0;
    }
    air
    {
        type            fixedValue;
        value           nonuniform List<scalar> 0();
    }
    outlet
    {
        type            inletOutlet;
        inletValue      uniform 0;
        value           nonuniform List<scalar> 5(1.03781e-05 4.55517e-05 0.000118129 0.000271996 0.00053479);
    }
    frontAndBack
    {
        type            empty;
    }
    procBoundary2to0
    {
        type            processor;
        value           nonuniform List<scalar> 5(2.06323e-05 7.56737e-05 0.000178598 0.000401403 0.00079759);
    }
    procBoundary2to3
    {
        type            processor;
        value           nonuniform List<scalar> 5(0.00100575 0.001066 0.000984495 0.000820598 0.000699937);
    }
}


// ************************************************************************* //
