/*--------------------------------*- C++ -*----------------------------------*\
  =========                 |
  \\      /  F ield         | OpenFOAM: The Open Source CFD Toolbox
   \\    /   O peration     | Website:  https://openfoam.org
    \\  /    A nd           | Version:  8
     \\/     M anipulation  |
\*---------------------------------------------------------------------------*/
FoamFile
{
    version     2.0;
    format      ascii;
    class       volScalarField;
    location    "0.05";
    object      C3H7;
}
// * * * * * * * * * * * * * * * * * * * * * * * * * * * * * * * * * * * * * //

dimensions      [0 0 0 0 0 0 0];

internalField   nonuniform List<scalar> 
25
(
1.26018e-09
4.90933e-09
1.43131e-08
1.58273e-09
5.78337e-10
1.14591e-09
4.49694e-09
1.3149e-08
1.50852e-09
4.95179e-10
9.3146e-10
3.73653e-09
1.10863e-08
1.33911e-09
3.45845e-10
6.60259e-10
2.88212e-09
9.05662e-09
1.14738e-09
2.46271e-10
4.44678e-10
2.16295e-09
6.95006e-09
9.39854e-10
1.8484e-10
)
;

boundaryField
{
    fuel
    {
        type            fixedValue;
        value           uniform 0;
    }
    air
    {
        type            fixedValue;
        value           nonuniform List<scalar> 0();
    }
    outlet
    {
        type            inletOutlet;
        inletValue      uniform 0;
        value           nonuniform List<scalar> 5(4.44678e-10 2.16295e-09 6.95006e-09 9.39854e-10 1.8484e-10);
    }
    frontAndBack
    {
        type            empty;
    }
    procBoundary2to0
    {
        type            processor;
        value           nonuniform List<scalar> 5(1.26018e-09 4.90932e-09 1.4313e-08 1.58271e-09 5.78355e-10);
    }
    procBoundary2to3
    {
        type            processor;
        value           nonuniform List<scalar> 5(2.43116e-09 1.6236e-09 7.2862e-10 3.17871e-10 1.6642e-10);
    }
}


// ************************************************************************* //
