/*--------------------------------*- C++ -*----------------------------------*\
  =========                 |
  \\      /  F ield         | OpenFOAM: The Open Source CFD Toolbox
   \\    /   O peration     | Website:  https://openfoam.org
    \\  /    A nd           | Version:  8
     \\/     M anipulation  |
\*---------------------------------------------------------------------------*/
FoamFile
{
    version     2.0;
    format      ascii;
    class       volScalarField;
    location    "0.05";
    object      CH2CHO;
}
// * * * * * * * * * * * * * * * * * * * * * * * * * * * * * * * * * * * * * //

dimensions      [0 0 0 0 0 0 0];

internalField   nonuniform List<scalar> 
25
(
3.42413e-10
1.68521e-09
6.3316e-09
5.03281e-09
1.15541e-08
2.87859e-10
1.367e-09
4.98554e-09
4.36019e-09
7.05171e-09
2.11038e-10
9.49601e-10
3.28979e-09
3.33555e-09
3.33001e-09
1.41459e-10
6.33595e-10
2.10814e-09
2.43562e-09
1.51205e-09
9.57933e-11
4.31083e-10
1.28141e-09
1.75529e-09
7.69656e-10
)
;

boundaryField
{
    fuel
    {
        type            fixedValue;
        value           uniform 0;
    }
    air
    {
        type            fixedValue;
        value           nonuniform List<scalar> 0();
    }
    outlet
    {
        type            inletOutlet;
        inletValue      uniform 0;
        value           nonuniform List<scalar> 5(9.57933e-11 4.31083e-10 1.28141e-09 1.75529e-09 7.69656e-10);
    }
    frontAndBack
    {
        type            empty;
    }
    procBoundary2to0
    {
        type            processor;
        value           nonuniform List<scalar> 5(3.42398e-10 1.68515e-09 6.3316e-09 5.03283e-09 1.15547e-08);
    }
    procBoundary2to3
    {
        type            processor;
        value           nonuniform List<scalar> 5(7.87298e-08 5.19476e-08 2.09618e-08 7.6947e-09 3.37314e-09);
    }
}


// ************************************************************************* //
