/*--------------------------------*- C++ -*----------------------------------*\
  =========                 |
  \\      /  F ield         | OpenFOAM: The Open Source CFD Toolbox
   \\    /   O peration     | Website:  https://openfoam.org
    \\  /    A nd           | Version:  8
     \\/     M anipulation  |
\*---------------------------------------------------------------------------*/
FoamFile
{
    version     2.0;
    format      ascii;
    class       volScalarField;
    location    "0.05";
    object      CH3;
}
// * * * * * * * * * * * * * * * * * * * * * * * * * * * * * * * * * * * * * //

dimensions      [0 0 0 0 0 0 0];

internalField   nonuniform List<scalar> 
25
(
1.44521e-08
8.24492e-08
4.66729e-07
3.76467e-06
3.19254e-05
1.36088e-08
7.63023e-08
4.25857e-07
3.32693e-06
2.82874e-05
1.21674e-08
6.62306e-08
3.55077e-07
2.44701e-06
1.91337e-05
1.0425e-08
5.68141e-08
2.97514e-07
1.81214e-06
1.28946e-05
8.90688e-09
4.92321e-08
2.51537e-07
1.43219e-06
9.46742e-06
)
;

boundaryField
{
    fuel
    {
        type            fixedValue;
        value           uniform 0;
    }
    air
    {
        type            fixedValue;
        value           nonuniform List<scalar> 0();
    }
    outlet
    {
        type            inletOutlet;
        inletValue      uniform 0;
        value           nonuniform List<scalar> 5(8.90688e-09 4.92321e-08 2.51537e-07 1.43219e-06 9.46742e-06);
    }
    frontAndBack
    {
        type            empty;
    }
    procBoundary2to0
    {
        type            processor;
        value           nonuniform List<scalar> 5(1.44521e-08 8.24495e-08 4.66736e-07 3.76482e-06 3.19263e-05);
    }
    procBoundary2to3
    {
        type            processor;
        value           nonuniform List<scalar> 5(0.000196624 0.000148689 8.83227e-05 5.15408e-05 3.41593e-05);
    }
}


// ************************************************************************* //
