/*--------------------------------*- C++ -*----------------------------------*\
  =========                 |
  \\      /  F ield         | OpenFOAM: The Open Source CFD Toolbox
   \\    /   O peration     | Website:  https://openfoam.org
    \\  /    A nd           | Version:  8
     \\/     M anipulation  |
\*---------------------------------------------------------------------------*/
FoamFile
{
    version     2.0;
    format      ascii;
    class       volScalarField;
    location    "0.05";
    object      CH3OH;
}
// * * * * * * * * * * * * * * * * * * * * * * * * * * * * * * * * * * * * * //

dimensions      [0 0 0 0 0 0 0];

internalField   nonuniform List<scalar> 
25
(
1.88539e-09
2.08779e-08
1.27896e-07
3.97895e-07
3.72716e-06
1.80237e-09
2.04007e-08
1.30629e-07
4.45625e-07
3.00773e-06
1.60316e-09
1.86345e-08
1.28822e-07
5.73044e-07
3.62888e-06
1.29556e-09
1.58364e-08
1.16008e-07
5.35313e-07
3.09501e-06
1.01851e-09
1.3108e-08
9.90961e-08
4.74926e-07
2.57001e-06
)
;

boundaryField
{
    fuel
    {
        type            fixedValue;
        value           uniform 0;
    }
    air
    {
        type            fixedValue;
        value           nonuniform List<scalar> 0();
    }
    outlet
    {
        type            inletOutlet;
        inletValue      uniform 0;
        value           nonuniform List<scalar> 5(1.01851e-09 1.3108e-08 9.90961e-08 4.74926e-07 2.57001e-06);
    }
    frontAndBack
    {
        type            empty;
    }
    procBoundary2to0
    {
        type            processor;
        value           nonuniform List<scalar> 5(1.88539e-09 2.08779e-08 1.27895e-07 3.97883e-07 3.72716e-06);
    }
    procBoundary2to3
    {
        type            processor;
        value           nonuniform List<scalar> 5(2.15511e-05 2.35038e-05 2.07503e-05 1.51353e-05 1.1113e-05);
    }
}


// ************************************************************************* //
