/*--------------------------------*- C++ -*----------------------------------*\
  =========                 |
  \\      /  F ield         | OpenFOAM: The Open Source CFD Toolbox
   \\    /   O peration     | Website:  https://openfoam.org
    \\  /    A nd           | Version:  8
     \\/     M anipulation  |
\*---------------------------------------------------------------------------*/
FoamFile
{
    version     2.0;
    format      ascii;
    class       volScalarField;
    location    "0.05";
    object      CN;
}
// * * * * * * * * * * * * * * * * * * * * * * * * * * * * * * * * * * * * * //

dimensions      [0 0 0 0 0 0 0];

internalField   nonuniform List<scalar> 
25
(
9.20165e-19
6.91923e-17
3.32812e-15
1.00122e-13
1.44093e-12
5.19489e-19
3.88186e-17
1.84757e-15
5.44705e-14
7.68148e-13
2.08952e-19
1.54683e-17
7.20096e-16
2.02711e-14
2.77383e-13
7.46667e-20
5.5439e-18
2.56184e-16
6.90507e-15
9.45116e-14
2.66553e-20
1.98967e-18
9.12959e-17
2.52858e-15
3.68336e-14
)
;

boundaryField
{
    fuel
    {
        type            fixedValue;
        value           uniform 0;
    }
    air
    {
        type            fixedValue;
        value           nonuniform List<scalar> 0();
    }
    outlet
    {
        type            inletOutlet;
        inletValue      uniform 0;
        value           nonuniform List<scalar> 5(2.66553e-20 1.98967e-18 9.12959e-17 2.52858e-15 3.68336e-14);
    }
    frontAndBack
    {
        type            empty;
    }
    procBoundary2to0
    {
        type            processor;
        value           nonuniform List<scalar> 5(9.20514e-19 6.92189e-17 3.32943e-15 1.00163e-13 1.44151e-12);
    }
    procBoundary2to3
    {
        type            processor;
        value           nonuniform List<scalar> 5(1.16182e-11 5.84221e-12 1.87493e-12 6.01752e-13 2.44082e-13);
    }
}


// ************************************************************************* //
