/*--------------------------------*- C++ -*----------------------------------*\
  =========                 |
  \\      /  F ield         | OpenFOAM: The Open Source CFD Toolbox
   \\    /   O peration     | Website:  https://openfoam.org
    \\  /    A nd           | Version:  8
     \\/     M anipulation  |
\*---------------------------------------------------------------------------*/
FoamFile
{
    version     2.0;
    format      ascii;
    class       volScalarField;
    location    "0.05";
    object      CO;
}
// * * * * * * * * * * * * * * * * * * * * * * * * * * * * * * * * * * * * * //

dimensions      [0 0 0 0 0 0 0];

internalField   nonuniform List<scalar> 
25
(
2.88726e-05
0.000256065
0.0013531
0.00473214
0.0101263
2.57197e-05
0.00022972
0.00120996
0.0041511
0.00853807
2.06349e-05
0.000187081
0.000992886
0.00330906
0.00643359
1.50997e-05
0.000144924
0.000792528
0.00255128
0.00475992
1.08973e-05
0.00011122
0.000609431
0.00199689
0.00353628
)
;

boundaryField
{
    fuel
    {
        type            fixedValue;
        value           uniform 0;
    }
    air
    {
        type            fixedValue;
        value           nonuniform List<scalar> 0();
    }
    outlet
    {
        type            inletOutlet;
        inletValue      uniform 0;
        value           nonuniform List<scalar> 5(1.08973e-05 0.00011122 0.000609431 0.00199689 0.00353628);
    }
    frontAndBack
    {
        type            empty;
    }
    procBoundary2to0
    {
        type            processor;
        value           nonuniform List<scalar> 5(2.88718e-05 0.000256059 0.00135308 0.0047321 0.0101262);
    }
    procBoundary2to3
    {
        type            processor;
        value           nonuniform List<scalar> 5(0.0138709 0.0107381 0.00698468 0.00456857 0.00331786);
    }
}


// ************************************************************************* //
