/*--------------------------------*- C++ -*----------------------------------*\
  =========                 |
  \\      /  F ield         | OpenFOAM: The Open Source CFD Toolbox
   \\    /   O peration     | Website:  https://openfoam.org
    \\  /    A nd           | Version:  8
     \\/     M anipulation  |
\*---------------------------------------------------------------------------*/
FoamFile
{
    version     2.0;
    format      ascii;
    class       volScalarField;
    location    "0.05";
    object      H;
}
// * * * * * * * * * * * * * * * * * * * * * * * * * * * * * * * * * * * * * //

dimensions      [0 0 0 0 0 0 0];

internalField   nonuniform List<scalar> 
25
(
1.7878e-13
6.90064e-12
2.90464e-10
8.33433e-09
1.16825e-07
1.51599e-13
5.28401e-12
2.19788e-10
6.28488e-09
8.92984e-08
1.20786e-13
3.49909e-12
1.44434e-10
4.12619e-09
6.1539e-08
1.02135e-13
2.27745e-12
9.5349e-11
2.74096e-09
4.43479e-08
9.02494e-14
1.54348e-12
6.57204e-11
1.94989e-09
3.50993e-08
)
;

boundaryField
{
    fuel
    {
        type            fixedValue;
        value           uniform 0;
    }
    air
    {
        type            fixedValue;
        value           nonuniform List<scalar> 0();
    }
    outlet
    {
        type            inletOutlet;
        inletValue      uniform 0;
        value           nonuniform List<scalar> 5(9.02494e-14 1.54348e-12 6.57204e-11 1.94989e-09 3.50993e-08);
    }
    frontAndBack
    {
        type            empty;
    }
    procBoundary2to0
    {
        type            processor;
        value           nonuniform List<scalar> 5(1.78796e-13 6.90151e-12 2.90507e-10 8.33565e-09 1.1684e-07);
    }
    procBoundary2to3
    {
        type            processor;
        value           nonuniform List<scalar> 5(9.22188e-07 7.00131e-07 4.96179e-07 3.86357e-07 3.47426e-07);
    }
}


// ************************************************************************* //
