/*--------------------------------*- C++ -*----------------------------------*\
  =========                 |
  \\      /  F ield         | OpenFOAM: The Open Source CFD Toolbox
   \\    /   O peration     | Website:  https://openfoam.org
    \\  /    A nd           | Version:  8
     \\/     M anipulation  |
\*---------------------------------------------------------------------------*/
FoamFile
{
    version     2.0;
    format      ascii;
    class       volScalarField;
    location    "0.05";
    object      HCCO;
}
// * * * * * * * * * * * * * * * * * * * * * * * * * * * * * * * * * * * * * //

dimensions      [0 0 0 0 0 0 0];

internalField   nonuniform List<scalar> 
25
(
4.97335e-12
6.35462e-12
2.74576e-10
8.27253e-09
1.19175e-07
4.19208e-12
3.46483e-12
1.3791e-10
4.02949e-09
5.58353e-08
3.17771e-12
1.4602e-12
4.84518e-11
1.33444e-09
1.7509e-08
2.44057e-12
6.90743e-13
1.56848e-11
4.09433e-10
5.26315e-09
1.91161e-12
4.52093e-13
5.15654e-12
1.38469e-10
1.89166e-09
)
;

boundaryField
{
    fuel
    {
        type            fixedValue;
        value           uniform 0;
    }
    air
    {
        type            fixedValue;
        value           nonuniform List<scalar> 0();
    }
    outlet
    {
        type            inletOutlet;
        inletValue      uniform 0;
        value           nonuniform List<scalar> 5(1.91161e-12 4.52093e-13 5.15654e-12 1.38469e-10 1.89166e-09);
    }
    frontAndBack
    {
        type            empty;
    }
    procBoundary2to0
    {
        type            processor;
        value           nonuniform List<scalar> 5(4.97323e-12 6.35461e-12 2.7459e-10 8.27296e-09 1.19178e-07);
    }
    procBoundary2to3
    {
        type            processor;
        value           nonuniform List<scalar> 5(9.62583e-07 4.24474e-07 1.12901e-07 3.01091e-08 1.03247e-08);
    }
}


// ************************************************************************* //
