/*--------------------------------*- C++ -*----------------------------------*\
  =========                 |
  \\      /  F ield         | OpenFOAM: The Open Source CFD Toolbox
   \\    /   O peration     | Website:  https://openfoam.org
    \\  /    A nd           | Version:  8
     \\/     M anipulation  |
\*---------------------------------------------------------------------------*/
FoamFile
{
    version     2.0;
    format      ascii;
    class       volScalarField;
    location    "0.05";
    object      HCCOH;
}
// * * * * * * * * * * * * * * * * * * * * * * * * * * * * * * * * * * * * * //

dimensions      [0 0 0 0 0 0 0];

internalField   nonuniform List<scalar> 
25
(
3.70194e-09
3.13274e-08
1.59205e-07
5.45966e-07
1.18759e-06
3.28993e-09
2.80559e-08
1.42199e-07
4.78032e-07
9.95807e-07
2.63837e-09
2.29006e-08
1.17461e-07
3.86439e-07
7.71748e-07
1.9321e-09
1.78419e-08
9.48039e-08
3.03937e-07
5.90513e-07
1.39459e-09
1.3785e-08
7.38791e-08
2.42411e-07
4.52865e-07
)
;

boundaryField
{
    fuel
    {
        type            fixedValue;
        value           uniform 0;
    }
    air
    {
        type            fixedValue;
        value           nonuniform List<scalar> 0();
    }
    outlet
    {
        type            inletOutlet;
        inletValue      uniform 0;
        value           nonuniform List<scalar> 5(1.39459e-09 1.3785e-08 7.38791e-08 2.42411e-07 4.52865e-07);
    }
    frontAndBack
    {
        type            empty;
    }
    procBoundary2to0
    {
        type            processor;
        value           nonuniform List<scalar> 5(3.70209e-09 3.13281e-08 1.59206e-07 5.45968e-07 1.18759e-06);
    }
    procBoundary2to3
    {
        type            processor;
        value           nonuniform List<scalar> 5(1.88436e-06 1.443e-06 9.87079e-07 6.80938e-07 5.10469e-07);
    }
}


// ************************************************************************* //
