/*--------------------------------*- C++ -*----------------------------------*\
  =========                 |
  \\      /  F ield         | OpenFOAM: The Open Source CFD Toolbox
   \\    /   O peration     | Website:  https://openfoam.org
    \\  /    A nd           | Version:  8
     \\/     M anipulation  |
\*---------------------------------------------------------------------------*/
FoamFile
{
    version     2.0;
    format      ascii;
    class       volScalarField;
    location    "0.05";
    object      HNCO;
}
// * * * * * * * * * * * * * * * * * * * * * * * * * * * * * * * * * * * * * //

dimensions      [0 0 0 0 0 0 0];

internalField   nonuniform List<scalar> 
25
(
1.12838e-08
8.50145e-08
3.87569e-07
1.22801e-06
2.46946e-06
1.03251e-08
7.84041e-08
3.55002e-07
1.09057e-06
2.06327e-06
8.63898e-09
6.68654e-08
3.04048e-07
8.9678e-07
1.57028e-06
6.56744e-09
5.43398e-08
2.54741e-07
7.22479e-07
1.19593e-06
4.90163e-09
4.37366e-08
2.0729e-07
5.93627e-07
9.28255e-07
)
;

boundaryField
{
    fuel
    {
        type            fixedValue;
        value           uniform 0;
    }
    air
    {
        type            fixedValue;
        value           nonuniform List<scalar> 0();
    }
    outlet
    {
        type            inletOutlet;
        inletValue      uniform 0;
        value           nonuniform List<scalar> 5(4.90163e-09 4.37366e-08 2.0729e-07 5.93627e-07 9.28255e-07);
    }
    frontAndBack
    {
        type            empty;
    }
    procBoundary2to0
    {
        type            processor;
        value           nonuniform List<scalar> 5(1.12852e-08 8.50293e-08 3.87656e-07 1.22832e-06 2.47006e-06);
    }
    procBoundary2to3
    {
        type            processor;
        value           nonuniform List<scalar> 5(3.15945e-06 2.35798e-06 1.49496e-06 9.87592e-07 7.36092e-07);
    }
}


// ************************************************************************* //
