/*--------------------------------*- C++ -*----------------------------------*\
  =========                 |
  \\      /  F ield         | OpenFOAM: The Open Source CFD Toolbox
   \\    /   O peration     | Website:  https://openfoam.org
    \\  /    A nd           | Version:  8
     \\/     M anipulation  |
\*---------------------------------------------------------------------------*/
FoamFile
{
    version     2.0;
    format      ascii;
    class       volScalarField;
    location    "0.05";
    object      O;
}
// * * * * * * * * * * * * * * * * * * * * * * * * * * * * * * * * * * * * * //

dimensions      [0 0 0 0 0 0 0];

internalField   nonuniform List<scalar> 
25
(
3.17831e-12
1.78172e-10
8.52127e-09
2.53998e-07
3.60315e-06
2.85669e-12
1.5248e-10
7.35342e-09
2.21458e-07
3.23132e-06
2.50956e-12
1.19437e-10
5.86124e-09
1.80081e-07
2.81304e-06
2.40221e-12
8.96009e-11
4.51305e-09
1.41314e-07
2.41542e-06
2.42341e-12
6.27729e-11
3.20635e-09
1.02405e-07
1.90348e-06
)
;

boundaryField
{
    fuel
    {
        type            fixedValue;
        value           uniform 0;
    }
    air
    {
        type            fixedValue;
        value           nonuniform List<scalar> 0();
    }
    outlet
    {
        type            inletOutlet;
        inletValue      uniform 0;
        value           nonuniform List<scalar> 5(2.42341e-12 6.27729e-11 3.20635e-09 1.02405e-07 1.90348e-06);
    }
    frontAndBack
    {
        type            empty;
    }
    procBoundary2to0
    {
        type            processor;
        value           nonuniform List<scalar> 5(3.17864e-12 1.78188e-10 8.52206e-09 2.54023e-07 3.60344e-06);
    }
    procBoundary2to3
    {
        type            processor;
        value           nonuniform List<scalar> 5(2.87191e-05 2.62458e-05 2.39928e-05 2.23126e-05 1.91607e-05);
    }
}


// ************************************************************************* //
