/*--------------------------------*- C++ -*----------------------------------*\
  =========                 |
  \\      /  F ield         | OpenFOAM: The Open Source CFD Toolbox
   \\    /   O peration     | Website:  https://openfoam.org
    \\  /    A nd           | Version:  8
     \\/     M anipulation  |
\*---------------------------------------------------------------------------*/
FoamFile
{
    version     2.0;
    format      ascii;
    class       volVectorField;
    location    "0.05";
    object      U;
}
// * * * * * * * * * * * * * * * * * * * * * * * * * * * * * * * * * * * * * //

dimensions      [0 1 -1 0 0 0 0];

internalField   nonuniform List<vector> 
25
(
(0.101458 0.0067018 0)
(0.0937152 0.0159122 0)
(0.0661627 0.0227484 0)
(0.0121556 0.0301394 -4.61532e-29)
(-0.0640507 0.0345388 0)
(0.100797 0.0196697 0)
(0.0957639 0.0460252 0)
(0.0669993 0.0682011 0)
(0.0137817 0.0893491 0)
(-0.060942 0.101986 0)
(0.100498 0.0317196 0)
(0.0963147 0.0757104 0)
(0.0690597 0.113256 0)
(0.0173117 0.147063 0)
(-0.0548146 0.167995 0)
(0.101637 0.0425289 0)
(0.0969947 0.0995434 0)
(0.0700113 0.147996 0)
(0.0198274 0.193984 0)
(-0.0469643 0.224715 0)
(0.101846 0.0627449 0)
(0.0936944 0.147 0)
(0.065606 0.213027 0)
(0.0202188 0.268595 0)
(-0.0364277 0.306555 0)
)
;

boundaryField
{
    fuel
    {
        type            fixedValue;
        value           uniform (0.1 0 0);
    }
    air
    {
        type            fixedValue;
        value           nonuniform List<vector> 0();
    }
    outlet
    {
        type            pressureInletOutletVelocity;
        value           nonuniform List<vector> 5((0.101846 0.0627449 0) (0.0936944 0.147 0) (0.065606 0.213027 0) (0.0202188 0.268595 0) (-0.0364277 0.306555 0));
    }
    frontAndBack
    {
        type            empty;
    }
    procBoundary2to0
    {
        type            processor;
        value           nonuniform List<vector> 5((0.101461 -0.00671487 0) (0.0937157 -0.0158909 0) (0.0661703 -0.0227119 0) (0.012156 -0.0301587 0) (-0.064189 -0.0344525 0));
    }
    procBoundary2to3
    {
        type            processor;
        value           nonuniform List<vector> 5((-0.148792 0.0358283 0) (-0.144456 0.105959 0) (-0.13556 0.175076 0) (-0.121788 0.235898 0) (-0.099733 0.322356 0));
    }
}


// ************************************************************************* //
