/*--------------------------------*- C++ -*----------------------------------*\
  =========                 |
  \\      /  F ield         | OpenFOAM: The Open Source CFD Toolbox
   \\    /   O peration     | Website:  https://openfoam.org
    \\  /    A nd           | Version:  8
     \\/     M anipulation  |
\*---------------------------------------------------------------------------*/
FoamFile
{
    version     2.0;
    format      ascii;
    class       volScalarField;
    location    "0.1";
    object      C2H;
}
// * * * * * * * * * * * * * * * * * * * * * * * * * * * * * * * * * * * * * //

dimensions      [0 0 0 0 0 0 0];

internalField   nonuniform List<scalar> 
25
(
1.87566e-14
1.40236e-12
6.95024e-11
1.80682e-09
1.85168e-08
1.81223e-14
1.35634e-12
6.73692e-11
1.75193e-09
1.78328e-08
1.73226e-14
1.2961e-12
6.44088e-11
1.67592e-09
1.71024e-08
1.59223e-14
1.19437e-12
5.95081e-11
1.54636e-09
1.54793e-08
1.48587e-14
1.11564e-12
5.57324e-11
1.44571e-09
1.3749e-08
)
;

boundaryField
{
    fuel
    {
        type            fixedValue;
        value           uniform 0;
    }
    air
    {
        type            fixedValue;
        value           nonuniform List<scalar> 0();
    }
    outlet
    {
        type            inletOutlet;
        inletValue      uniform 0;
        value           nonuniform List<scalar> 5(1.48587e-14 1.11564e-12 5.57324e-11 1.44571e-09 1.3749e-08);
    }
    frontAndBack
    {
        type            empty;
    }
    procBoundary2to0
    {
        type            processor;
        value           nonuniform List<scalar> 5(1.83085e-14 1.36774e-12 6.77138e-11 1.75684e-09 1.79241e-08);
    }
    procBoundary2to3
    {
        type            processor;
        value           nonuniform List<scalar> 5(1.04412e-07 9.99186e-08 9.6899e-08 8.76132e-08 7.74295e-08);
    }
}


// ************************************************************************* //
