/*--------------------------------*- C++ -*----------------------------------*\
  =========                 |
  \\      /  F ield         | OpenFOAM: The Open Source CFD Toolbox
   \\    /   O peration     | Website:  https://openfoam.org
    \\  /    A nd           | Version:  8
     \\/     M anipulation  |
\*---------------------------------------------------------------------------*/
FoamFile
{
    version     2.0;
    format      ascii;
    class       volScalarField;
    location    "0.1";
    object      C2H6;
}
// * * * * * * * * * * * * * * * * * * * * * * * * * * * * * * * * * * * * * //

dimensions      [0 0 0 0 0 0 0];

internalField   nonuniform List<scalar> 
25
(
6.43913e-06
4.72568e-05
0.000194885
0.000441481
0.000473885
6.35506e-06
4.7007e-05
0.000195901
0.000446661
0.00048076
6.24763e-06
4.69671e-05
0.000198295
0.000455766
0.000494215
6.03356e-06
4.63954e-05
0.000200494
0.000469375
0.000516778
5.8497e-06
4.59186e-05
0.000203245
0.000484988
0.000541197
)
;

boundaryField
{
    fuel
    {
        type            fixedValue;
        value           uniform 0;
    }
    air
    {
        type            fixedValue;
        value           nonuniform List<scalar> 0();
    }
    outlet
    {
        type            inletOutlet;
        inletValue      uniform 0;
        value           nonuniform List<scalar> 5(5.8497e-06 4.59186e-05 0.000203245 0.000484988 0.000541197);
    }
    frontAndBack
    {
        type            empty;
    }
    procBoundary2to0
    {
        type            processor;
        value           nonuniform List<scalar> 5(6.43914e-06 4.72565e-05 0.000194888 0.000441601 0.000474262);
    }
    procBoundary2to3
    {
        type            processor;
        value           nonuniform List<scalar> 5(8.63129e-05 8.86355e-05 9.75836e-05 0.000115358 0.000140961);
    }
}


// ************************************************************************* //
