/*--------------------------------*- C++ -*----------------------------------*\
  =========                 |
  \\      /  F ield         | OpenFOAM: The Open Source CFD Toolbox
   \\    /   O peration     | Website:  https://openfoam.org
    \\  /    A nd           | Version:  8
     \\/     M anipulation  |
\*---------------------------------------------------------------------------*/
FoamFile
{
    version     2.0;
    format      ascii;
    class       volScalarField;
    location    "0.1";
    object      C3H7;
}
// * * * * * * * * * * * * * * * * * * * * * * * * * * * * * * * * * * * * * //

dimensions      [0 0 0 0 0 0 0];

internalField   nonuniform List<scalar> 
25
(
3.79593e-10
2.3788e-09
8.95913e-09
1.71905e-09
2.4587e-10
3.65217e-10
2.31361e-09
8.8399e-09
1.73759e-09
2.52496e-10
3.45103e-10
2.23639e-09
8.74683e-09
1.7783e-09
2.66159e-10
3.15917e-10
2.12006e-09
8.56883e-09
1.83845e-09
2.92708e-10
2.91889e-10
2.01633e-09
8.46447e-09
1.83776e-09
3.21604e-10
)
;

boundaryField
{
    fuel
    {
        type            fixedValue;
        value           uniform 0;
    }
    air
    {
        type            fixedValue;
        value           nonuniform List<scalar> 0();
    }
    outlet
    {
        type            inletOutlet;
        inletValue      uniform 0;
        value           nonuniform List<scalar> 5(2.91889e-10 2.01633e-09 8.46447e-09 1.83776e-09 3.21604e-10);
    }
    frontAndBack
    {
        type            empty;
    }
    procBoundary2to0
    {
        type            processor;
        value           nonuniform List<scalar> 5(3.79593e-10 2.37873e-09 8.95925e-09 1.71941e-09 2.47277e-10);
    }
    procBoundary2to3
    {
        type            processor;
        value           nonuniform List<scalar> 5(1.65666e-10 1.8318e-10 2.17983e-10 3.13021e-10 4.5287e-10);
    }
}


// ************************************************************************* //
