/*--------------------------------*- C++ -*----------------------------------*\
  =========                 |
  \\      /  F ield         | OpenFOAM: The Open Source CFD Toolbox
   \\    /   O peration     | Website:  https://openfoam.org
    \\  /    A nd           | Version:  8
     \\/     M anipulation  |
\*---------------------------------------------------------------------------*/
FoamFile
{
    version     2.0;
    format      ascii;
    class       volScalarField;
    location    "0.1";
    object      C3H8;
}
// * * * * * * * * * * * * * * * * * * * * * * * * * * * * * * * * * * * * * //

dimensions      [0 0 0 0 0 0 0];

internalField   nonuniform List<scalar> 
25
(
1.79474e-08
1.55487e-07
7.41692e-07
1.757e-06
1.72772e-06
1.76725e-08
1.5453e-07
7.46072e-07
1.78783e-06
1.78149e-06
1.73131e-08
1.54099e-07
7.55647e-07
1.84174e-06
1.88048e-06
1.66311e-08
1.51808e-07
7.64554e-07
1.92011e-06
2.03954e-06
1.60575e-08
1.49863e-07
7.75438e-07
2.00391e-06
2.19935e-06
)
;

boundaryField
{
    fuel
    {
        type            fixedValue;
        value           uniform 0;
    }
    air
    {
        type            fixedValue;
        value           nonuniform List<scalar> 0();
    }
    outlet
    {
        type            inletOutlet;
        inletValue      uniform 0;
        value           nonuniform List<scalar> 5(1.60575e-08 1.49863e-07 7.75438e-07 2.00391e-06 2.19935e-06);
    }
    frontAndBack
    {
        type            empty;
    }
    procBoundary2to0
    {
        type            processor;
        value           nonuniform List<scalar> 5(1.79487e-08 1.55494e-07 7.4172e-07 1.75773e-06 1.73154e-06);
    }
    procBoundary2to3
    {
        type            processor;
        value           nonuniform List<scalar> 5(2.17841e-07 2.25472e-07 2.43791e-07 2.80064e-07 3.30501e-07);
    }
}


// ************************************************************************* //
