/*--------------------------------*- C++ -*----------------------------------*\
  =========                 |
  \\      /  F ield         | OpenFOAM: The Open Source CFD Toolbox
   \\    /   O peration     | Website:  https://openfoam.org
    \\  /    A nd           | Version:  8
     \\/     M anipulation  |
\*---------------------------------------------------------------------------*/
FoamFile
{
    version     2.0;
    format      ascii;
    class       volScalarField;
    location    "0.1";
    object      CH2CO;
}
// * * * * * * * * * * * * * * * * * * * * * * * * * * * * * * * * * * * * * //

dimensions      [0 0 0 0 0 0 0];

internalField   nonuniform List<scalar> 
25
(
1.71645e-06
1.58818e-05
7.50064e-05
0.000169711
0.000185073
1.68161e-06
1.57199e-05
7.53147e-05
0.000172544
0.000189658
1.6358e-06
1.55874e-05
7.61649e-05
0.000177981
0.000200729
1.55454e-06
1.5245e-05
7.6964e-05
0.000186287
0.000219004
1.48565e-06
1.49425e-05
7.80065e-05
0.000195603
0.000239153
)
;

boundaryField
{
    fuel
    {
        type            fixedValue;
        value           uniform 0;
    }
    air
    {
        type            fixedValue;
        value           nonuniform List<scalar> 0();
    }
    outlet
    {
        type            inletOutlet;
        inletValue      uniform 0;
        value           nonuniform List<scalar> 5(1.48565e-06 1.49425e-05 7.80065e-05 0.000195603 0.000239153);
    }
    frontAndBack
    {
        type            empty;
    }
    procBoundary2to0
    {
        type            processor;
        value           nonuniform List<scalar> 5(1.71642e-06 1.58812e-05 7.50022e-05 0.000169691 0.000184549);
    }
    procBoundary2to3
    {
        type            processor;
        value           nonuniform List<scalar> 5(0.000129226 0.000130246 0.000147488 0.00017551 0.000213281);
    }
}


// ************************************************************************* //
