/*--------------------------------*- C++ -*----------------------------------*\
  =========                 |
  \\      /  F ield         | OpenFOAM: The Open Source CFD Toolbox
   \\    /   O peration     | Website:  https://openfoam.org
    \\  /    A nd           | Version:  8
     \\/     M anipulation  |
\*---------------------------------------------------------------------------*/
FoamFile
{
    version     2.0;
    format      ascii;
    class       volScalarField;
    location    "0.1";
    object      CH2CHO;
}
// * * * * * * * * * * * * * * * * * * * * * * * * * * * * * * * * * * * * * //

dimensions      [0 0 0 0 0 0 0];

internalField   nonuniform List<scalar> 
25
(
1.18584e-10
1.02031e-09
1.13686e-08
1.97441e-08
3.67482e-09
1.13228e-10
9.88758e-10
1.11933e-08
2.00293e-08
3.75593e-09
1.04565e-10
9.26572e-10
1.0725e-08
2.03488e-08
3.95852e-09
9.39375e-11
8.59487e-10
1.02624e-08
2.09051e-08
4.37445e-09
8.63037e-11
8.13517e-10
1.00189e-08
2.08348e-08
4.88322e-09
)
;

boundaryField
{
    fuel
    {
        type            fixedValue;
        value           uniform 0;
    }
    air
    {
        type            fixedValue;
        value           nonuniform List<scalar> 0();
    }
    outlet
    {
        type            inletOutlet;
        inletValue      uniform 0;
        value           nonuniform List<scalar> 5(8.63037e-11 8.13517e-10 1.00189e-08 2.08348e-08 4.88322e-09);
    }
    frontAndBack
    {
        type            empty;
    }
    procBoundary2to0
    {
        type            processor;
        value           nonuniform List<scalar> 5(1.18774e-10 1.02234e-09 1.13955e-08 1.97399e-08 3.67184e-09);
    }
    procBoundary2to3
    {
        type            processor;
        value           nonuniform List<scalar> 5(3.5604e-09 3.73204e-09 4.52074e-09 6.48235e-09 9.53797e-09);
    }
}


// ************************************************************************* //
