/*--------------------------------*- C++ -*----------------------------------*\
  =========                 |
  \\      /  F ield         | OpenFOAM: The Open Source CFD Toolbox
   \\    /   O peration     | Website:  https://openfoam.org
    \\  /    A nd           | Version:  8
     \\/     M anipulation  |
\*---------------------------------------------------------------------------*/
FoamFile
{
    version     2.0;
    format      ascii;
    class       volScalarField;
    location    "0.1";
    object      CH4;
}
// * * * * * * * * * * * * * * * * * * * * * * * * * * * * * * * * * * * * * //

dimensions      [0 0 0 0 0 0 0];

internalField   nonuniform List<scalar> 
25
(
0.989388
0.931895
0.746378
0.397049
0.143232
0.989364
0.93209
0.746743
0.396548
0.14345
0.989239
0.931773
0.746458
0.396415
0.144306
0.989083
0.931936
0.747154
0.395675
0.145631
0.988883
0.931814
0.746836
0.391227
0.146732
)
;

boundaryField
{
    fuel
    {
        type            fixedValue;
        value           uniform 1;
    }
    air
    {
        type            fixedValue;
        value           nonuniform List<scalar> 0();
    }
    outlet
    {
        type            inletOutlet;
        inletValue      uniform 0;
        value           nonuniform List<scalar> 5(0.988883 0.931814 0.746836 0.391227 0.146732);
    }
    frontAndBack
    {
        type            empty;
    }
    procBoundary2to0
    {
        type            processor;
        value           nonuniform List<scalar> 5(0.989388 0.931895 0.746377 0.397041 0.143221);
    }
    procBoundary2to3
    {
        type            processor;
        value           nonuniform List<scalar> 5(0.022239 0.0223968 0.0230677 0.0243164 0.0259827);
    }
}


// ************************************************************************* //
