/*--------------------------------*- C++ -*----------------------------------*\
  =========                 |
  \\      /  F ield         | OpenFOAM: The Open Source CFD Toolbox
   \\    /   O peration     | Website:  https://openfoam.org
    \\  /    A nd           | Version:  8
     \\/     M anipulation  |
\*---------------------------------------------------------------------------*/
FoamFile
{
    version     2.0;
    format      ascii;
    class       volScalarField;
    location    "0.1";
    object      CN;
}
// * * * * * * * * * * * * * * * * * * * * * * * * * * * * * * * * * * * * * //

dimensions      [0 0 0 0 0 0 0];

internalField   nonuniform List<scalar> 
25
(
1.15276e-17
8.62082e-16
4.27387e-14
1.11167e-12
1.14057e-11
1.09568e-17
8.20062e-16
4.07248e-14
1.05884e-12
1.078e-11
1.01349e-17
7.57681e-16
3.7584e-14
9.75182e-13
9.91632e-12
8.92711e-18
6.68669e-16
3.31816e-14
8.56731e-13
8.50048e-12
8.03289e-18
6.01834e-16
2.99139e-14
7.69855e-13
7.2414e-12
)
;

boundaryField
{
    fuel
    {
        type            fixedValue;
        value           uniform 0;
    }
    air
    {
        type            fixedValue;
        value           nonuniform List<scalar> 0();
    }
    outlet
    {
        type            inletOutlet;
        inletValue      uniform 0;
        value           nonuniform List<scalar> 5(8.03289e-18 6.01834e-16 2.99139e-14 7.69855e-13 7.2414e-12);
    }
    frontAndBack
    {
        type            empty;
    }
    procBoundary2to0
    {
        type            processor;
        value           nonuniform List<scalar> 5(1.12408e-17 8.39926e-16 4.15938e-14 1.07967e-12 1.10262e-11);
    }
    procBoundary2to3
    {
        type            processor;
        value           nonuniform List<scalar> 5(6.43887e-11 6.04171e-11 5.59343e-11 4.75463e-11 4.0187e-11);
    }
}


// ************************************************************************* //
