/*--------------------------------*- C++ -*----------------------------------*\
  =========                 |
  \\      /  F ield         | OpenFOAM: The Open Source CFD Toolbox
   \\    /   O peration     | Website:  https://openfoam.org
    \\  /    A nd           | Version:  8
     \\/     M anipulation  |
\*---------------------------------------------------------------------------*/
FoamFile
{
    version     2.0;
    format      ascii;
    class       volScalarField;
    location    "0.1";
    object      H2;
}
// * * * * * * * * * * * * * * * * * * * * * * * * * * * * * * * * * * * * * //

dimensions      [0 0 0 0 0 0 0];

internalField   nonuniform List<scalar> 
25
(
1.6554e-05
0.000133756
0.000684067
0.0021181
0.00342362
1.59017e-05
0.000129885
0.000673897
0.00210967
0.00341964
1.50042e-05
0.000124995
0.000659968
0.00209348
0.00341521
1.37437e-05
0.000117995
0.000640363
0.00207729
0.00341268
1.27166e-05
0.000111876
0.000625647
0.00208189
0.00341358
)
;

boundaryField
{
    fuel
    {
        type            fixedValue;
        value           uniform 0;
    }
    air
    {
        type            fixedValue;
        value           nonuniform List<scalar> 0();
    }
    outlet
    {
        type            inletOutlet;
        inletValue      uniform 0;
        value           nonuniform List<scalar> 5(1.27166e-05 0.000111876 0.000625647 0.00208189 0.00341358);
    }
    frontAndBack
    {
        type            empty;
    }
    procBoundary2to0
    {
        type            processor;
        value           nonuniform List<scalar> 5(1.6554e-05 0.000133757 0.00068408 0.00211816 0.00342431);
    }
    procBoundary2to3
    {
        type            processor;
        value           nonuniform List<scalar> 5(0.00411639 0.00412423 0.00414197 0.00418022 0.00422465);
    }
}


// ************************************************************************* //
