/*--------------------------------*- C++ -*----------------------------------*\
  =========                 |
  \\      /  F ield         | OpenFOAM: The Open Source CFD Toolbox
   \\    /   O peration     | Website:  https://openfoam.org
    \\  /    A nd           | Version:  8
     \\/     M anipulation  |
\*---------------------------------------------------------------------------*/
FoamFile
{
    version     2.0;
    format      ascii;
    class       volScalarField;
    location    "0.1";
    object      HCNO;
}
// * * * * * * * * * * * * * * * * * * * * * * * * * * * * * * * * * * * * * //

dimensions      [0 0 0 0 0 0 0];

internalField   nonuniform List<scalar> 
25
(
4.38667e-09
3.50117e-08
1.35382e-07
2.31836e-07
1.85123e-07
4.25564e-09
3.43048e-08
1.34771e-07
2.3454e-07
1.8996e-07
4.08208e-09
3.35158e-08
1.34522e-07
2.40205e-07
2.01641e-07
3.81923e-09
3.22245e-08
1.33771e-07
2.49001e-07
2.21774e-07
3.60272e-09
3.10748e-08
1.33501e-07
2.58712e-07
2.44706e-07
)
;

boundaryField
{
    fuel
    {
        type            fixedValue;
        value           uniform 0;
    }
    air
    {
        type            fixedValue;
        value           nonuniform List<scalar> 0();
    }
    outlet
    {
        type            inletOutlet;
        inletValue      uniform 0;
        value           nonuniform List<scalar> 5(3.60272e-09 3.10748e-08 1.33501e-07 2.58712e-07 2.44706e-07);
    }
    frontAndBack
    {
        type            empty;
    }
    procBoundary2to0
    {
        type            processor;
        value           nonuniform List<scalar> 5(4.38687e-09 3.50126e-08 1.35382e-07 2.31821e-07 1.84829e-07);
    }
    procBoundary2to3
    {
        type            processor;
        value           nonuniform List<scalar> 5(9.75168e-08 1.00111e-07 1.15336e-07 1.44621e-07 1.87744e-07);
    }
}


// ************************************************************************* //
