/*--------------------------------*- C++ -*----------------------------------*\
  =========                 |
  \\      /  F ield         | OpenFOAM: The Open Source CFD Toolbox
   \\    /   O peration     | Website:  https://openfoam.org
    \\  /    A nd           | Version:  8
     \\/     M anipulation  |
\*---------------------------------------------------------------------------*/
FoamFile
{
    version     2.0;
    format      ascii;
    class       volScalarField;
    location    "0.1";
    object      HCO;
}
// * * * * * * * * * * * * * * * * * * * * * * * * * * * * * * * * * * * * * //

dimensions      [0 0 0 0 0 0 0];

internalField   nonuniform List<scalar> 
25
(
5.74982e-13
4.96908e-12
7.90676e-11
9.09536e-10
7.59499e-09
5.50618e-13
4.84494e-12
7.87888e-11
9.27805e-10
7.74982e-09
5.11358e-13
4.60557e-12
7.7946e-11
9.63622e-10
8.13202e-09
4.63702e-13
4.37083e-12
7.85426e-11
1.04645e-09
8.91921e-09
4.30465e-13
4.25512e-12
8.16957e-11
1.17438e-09
9.87541e-09
)
;

boundaryField
{
    fuel
    {
        type            fixedValue;
        value           uniform 0;
    }
    air
    {
        type            fixedValue;
        value           nonuniform List<scalar> 0();
    }
    outlet
    {
        type            inletOutlet;
        inletValue      uniform 0;
        value           nonuniform List<scalar> 5(4.30465e-13 4.25512e-12 8.16957e-11 1.17438e-09 9.87541e-09);
    }
    frontAndBack
    {
        type            empty;
    }
    procBoundary2to0
    {
        type            processor;
        value           nonuniform List<scalar> 5(5.75871e-13 4.98014e-12 7.93009e-11 9.12747e-10 7.63214e-09);
    }
    procBoundary2to3
    {
        type            processor;
        value           nonuniform List<scalar> 5(3.78037e-08 3.8735e-08 4.12906e-08 4.68929e-08 5.41525e-08);
    }
}


// ************************************************************************* //
