/*--------------------------------*- C++ -*----------------------------------*\
  =========                 |
  \\      /  F ield         | OpenFOAM: The Open Source CFD Toolbox
   \\    /   O peration     | Website:  https://openfoam.org
    \\  /    A nd           | Version:  8
     \\/     M anipulation  |
\*---------------------------------------------------------------------------*/
FoamFile
{
    version     2.0;
    format      ascii;
    class       volScalarField;
    location    "0.1";
    object      HNCO;
}
// * * * * * * * * * * * * * * * * * * * * * * * * * * * * * * * * * * * * * //

dimensions      [0 0 0 0 0 0 0];

internalField   nonuniform List<scalar> 
25
(
1.30798e-08
1.07353e-07
4.50932e-07
9.12192e-07
9.09992e-07
1.25932e-08
1.04441e-07
4.45924e-07
9.17184e-07
9.26702e-07
1.19506e-08
1.00966e-07
4.40421e-07
9.29096e-07
9.67298e-07
1.10417e-08
9.59065e-08
4.32427e-07
9.49495e-07
1.03634e-06
1.03056e-08
9.14666e-08
4.26755e-07
9.75317e-07
1.11084e-06
)
;

boundaryField
{
    fuel
    {
        type            fixedValue;
        value           uniform 0;
    }
    air
    {
        type            fixedValue;
        value           nonuniform List<scalar> 0();
    }
    outlet
    {
        type            inletOutlet;
        inletValue      uniform 0;
        value           nonuniform List<scalar> 5(1.03056e-08 9.14666e-08 4.26755e-07 9.75317e-07 1.11084e-06);
    }
    frontAndBack
    {
        type            empty;
    }
    procBoundary2to0
    {
        type            processor;
        value           nonuniform List<scalar> 5(1.30808e-08 1.07359e-07 4.50945e-07 9.12187e-07 9.09784e-07);
    }
    procBoundary2to3
    {
        type            processor;
        value           nonuniform List<scalar> 5(7.01912e-07 7.22355e-07 7.83975e-07 9.07245e-07 1.06508e-06);
    }
}


// ************************************************************************* //
