/*--------------------------------*- C++ -*----------------------------------*\
  =========                 |
  \\      /  F ield         | OpenFOAM: The Open Source CFD Toolbox
   \\    /   O peration     | Website:  https://openfoam.org
    \\  /    A nd           | Version:  8
     \\/     M anipulation  |
\*---------------------------------------------------------------------------*/
FoamFile
{
    version     2.0;
    format      ascii;
    class       volScalarField;
    location    "0.1";
    object      HNO;
}
// * * * * * * * * * * * * * * * * * * * * * * * * * * * * * * * * * * * * * //

dimensions      [0 0 0 0 0 0 0];

internalField   nonuniform List<scalar> 
25
(
1.82133e-12
1.6874e-11
7.27892e-11
3.39076e-11
1.26404e-10
1.76476e-12
1.65951e-11
7.30971e-11
3.40234e-11
1.2368e-10
1.68151e-12
1.62119e-11
7.30928e-11
3.41839e-11
1.23491e-10
1.55287e-12
1.556e-11
7.30772e-11
3.46036e-11
1.20672e-10
1.44545e-12
1.49746e-11
7.34571e-11
3.52731e-11
1.17593e-10
)
;

boundaryField
{
    fuel
    {
        type            fixedValue;
        value           uniform 0;
    }
    air
    {
        type            fixedValue;
        value           nonuniform List<scalar> 0();
    }
    outlet
    {
        type            inletOutlet;
        inletValue      uniform 0;
        value           nonuniform List<scalar> 5(1.44545e-12 1.49746e-11 7.34571e-11 3.52731e-11 1.17593e-10);
    }
    frontAndBack
    {
        type            empty;
    }
    procBoundary2to0
    {
        type            processor;
        value           nonuniform List<scalar> 5(1.82166e-12 1.68808e-11 7.28881e-11 3.35811e-11 1.22495e-10);
    }
    procBoundary2to3
    {
        type            processor;
        value           nonuniform List<scalar> 5(6.3664e-10 6.15765e-10 6.20732e-10 6.01273e-10 5.79243e-10);
    }
}


// ************************************************************************* //
