/*--------------------------------*- C++ -*----------------------------------*\
  =========                 |
  \\      /  F ield         | OpenFOAM: The Open Source CFD Toolbox
   \\    /   O peration     | Website:  https://openfoam.org
    \\  /    A nd           | Version:  8
     \\/     M anipulation  |
\*---------------------------------------------------------------------------*/
FoamFile
{
    version     2.0;
    format      ascii;
    class       volScalarField;
    location    "0.1";
    object      HOCN;
}
// * * * * * * * * * * * * * * * * * * * * * * * * * * * * * * * * * * * * * //

dimensions      [0 0 0 0 0 0 0];

internalField   nonuniform List<scalar> 
25
(
1.27843e-11
9.49203e-11
3.77543e-10
8.57013e-10
1.18584e-09
1.24523e-11
9.30956e-11
3.7384e-10
8.51909e-10
1.1716e-09
1.20263e-11
9.10982e-11
3.69382e-10
8.42178e-10
1.14198e-09
1.13843e-11
8.78145e-11
3.62294e-10
8.30785e-10
1.10526e-09
1.08651e-11
8.49547e-11
3.57039e-10
8.26024e-10
1.07727e-09
)
;

boundaryField
{
    fuel
    {
        type            fixedValue;
        value           uniform 0;
    }
    air
    {
        type            fixedValue;
        value           nonuniform List<scalar> 0();
    }
    outlet
    {
        type            inletOutlet;
        inletValue      uniform 0;
        value           nonuniform List<scalar> 5(1.08651e-11 8.49547e-11 3.57039e-10 8.26024e-10 1.07727e-09);
    }
    frontAndBack
    {
        type            empty;
    }
    procBoundary2to0
    {
        type            processor;
        value           nonuniform List<scalar> 5(1.27884e-11 9.49427e-11 3.77596e-10 8.57038e-10 1.18558e-09);
    }
    procBoundary2to3
    {
        type            processor;
        value           nonuniform List<scalar> 5(1.77497e-09 1.74366e-09 1.66997e-09 1.57826e-09 1.51503e-09);
    }
}


// ************************************************************************* //
