/*--------------------------------*- C++ -*----------------------------------*\
  =========                 |
  \\      /  F ield         | OpenFOAM: The Open Source CFD Toolbox
   \\    /   O peration     | Website:  https://openfoam.org
    \\  /    A nd           | Version:  8
     \\/     M anipulation  |
\*---------------------------------------------------------------------------*/
FoamFile
{
    version     2.0;
    format      ascii;
    class       volScalarField;
    location    "0.1";
    object      N2;
}
// * * * * * * * * * * * * * * * * * * * * * * * * * * * * * * * * * * * * * //

dimensions      [0 0 0 0 0 0 0];

internalField   nonuniform List<scalar> 
25
(
0.0099786
0.0616179
0.21494
0.476954
0.64987
0.0100169
0.0615253
0.214842
0.47758
0.649914
0.0101583
0.0619487
0.215438
0.47814
0.64966
0.0103422
0.0619746
0.215277
0.479199
0.649173
0.0105635
0.0622517
0.215887
0.482844
0.648804
)
;

boundaryField
{
    fuel
    {
        type            fixedValue;
        value           uniform 0;
    }
    air
    {
        type            fixedValue;
        value           nonuniform List<scalar> 0();
    }
    outlet
    {
        type            inletOutlet;
        inletValue      uniform 1;
        value           nonuniform List<scalar> 5(0.0105635 0.0622517 0.215887 0.482844 0.648804);
    }
    frontAndBack
    {
        type            empty;
    }
    procBoundary2to0
    {
        type            processor;
        value           nonuniform List<scalar> 5(0.00997857 0.0616178 0.214941 0.476958 0.649872);
    }
    procBoundary2to3
    {
        type            processor;
        value           nonuniform List<scalar> 5(0.724972 0.724955 0.724645 0.723929 0.722887);
    }
}


// ************************************************************************* //
