/*--------------------------------*- C++ -*----------------------------------*\
  =========                 |
  \\      /  F ield         | OpenFOAM: The Open Source CFD Toolbox
   \\    /   O peration     | Website:  https://openfoam.org
    \\  /    A nd           | Version:  8
     \\/     M anipulation  |
\*---------------------------------------------------------------------------*/
FoamFile
{
    version     2.0;
    format      ascii;
    class       volScalarField;
    location    "0.1";
    object      N2O;
}
// * * * * * * * * * * * * * * * * * * * * * * * * * * * * * * * * * * * * * //

dimensions      [0 0 0 0 0 0 0];

internalField   nonuniform List<scalar> 
25
(
1.24003e-09
1.05481e-08
4.79758e-08
1.17848e-07
1.62518e-07
1.25275e-09
1.06417e-08
4.84422e-08
1.1844e-07
1.61683e-07
1.27872e-09
1.08643e-08
4.92895e-08
1.18968e-07
1.59088e-07
1.29867e-09
1.10065e-08
5.00386e-08
1.19423e-07
1.54616e-07
1.3172e-09
1.116e-08
5.08749e-08
1.20256e-07
1.50049e-07
)
;

boundaryField
{
    fuel
    {
        type            fixedValue;
        value           uniform 0;
    }
    air
    {
        type            fixedValue;
        value           nonuniform List<scalar> 0();
    }
    outlet
    {
        type            inletOutlet;
        inletValue      uniform 0;
        value           nonuniform List<scalar> 5(1.3172e-09 1.116e-08 5.08749e-08 1.20256e-07 1.50049e-07);
    }
    frontAndBack
    {
        type            empty;
    }
    procBoundary2to0
    {
        type            processor;
        value           nonuniform List<scalar> 5(1.24016e-09 1.05492e-08 4.79789e-08 1.17841e-07 1.6246e-07);
    }
    procBoundary2to3
    {
        type            processor;
        value           nonuniform List<scalar> 5(1.87777e-07 1.85283e-07 1.7847e-07 1.66103e-07 1.52876e-07);
    }
}


// ************************************************************************* //
