/*--------------------------------*- C++ -*----------------------------------*\
  =========                 |
  \\      /  F ield         | OpenFOAM: The Open Source CFD Toolbox
   \\    /   O peration     | Website:  https://openfoam.org
    \\  /    A nd           | Version:  8
     \\/     M anipulation  |
\*---------------------------------------------------------------------------*/
FoamFile
{
    version     2.0;
    format      ascii;
    class       volScalarField;
    location    "0.1";
    object      NH3;
}
// * * * * * * * * * * * * * * * * * * * * * * * * * * * * * * * * * * * * * //

dimensions      [0 0 0 0 0 0 0];

internalField   nonuniform List<scalar> 
25
(
1.89214e-08
1.59908e-07
7.91495e-07
2.2428e-06
3.2744e-06
1.80784e-08
1.54304e-07
7.74959e-07
2.22648e-06
3.27522e-06
1.69598e-08
1.4724e-07
7.52208e-07
2.19908e-06
3.28174e-06
1.54583e-08
1.37687e-07
7.21964e-07
2.16831e-06
3.29338e-06
1.42597e-08
1.29423e-07
6.98037e-07
2.1594e-06
3.30512e-06
)
;

boundaryField
{
    fuel
    {
        type            fixedValue;
        value           uniform 0;
    }
    air
    {
        type            fixedValue;
        value           nonuniform List<scalar> 0();
    }
    outlet
    {
        type            inletOutlet;
        inletValue      uniform 0;
        value           nonuniform List<scalar> 5(1.42597e-08 1.29423e-07 6.98037e-07 2.1594e-06 3.30512e-06);
    }
    frontAndBack
    {
        type            empty;
    }
    procBoundary2to0
    {
        type            processor;
        value           nonuniform List<scalar> 5(1.89241e-08 1.59927e-07 7.91557e-07 2.24291e-06 3.27495e-06);
    }
    procBoundary2to3
    {
        type            processor;
        value           nonuniform List<scalar> 5(3.53629e-06 3.56668e-06 3.63131e-06 3.72879e-06 3.81731e-06);
    }
}


// ************************************************************************* //
