/*--------------------------------*- C++ -*----------------------------------*\
  =========                 |
  \\      /  F ield         | OpenFOAM: The Open Source CFD Toolbox
   \\    /   O peration     | Website:  https://openfoam.org
    \\  /    A nd           | Version:  8
     \\/     M anipulation  |
\*---------------------------------------------------------------------------*/
FoamFile
{
    version     2.0;
    format      ascii;
    class       surfaceScalarField;
    location    "0.1";
    object      phi;
}
// * * * * * * * * * * * * * * * * * * * * * * * * * * * * * * * * * * * * * //

dimensions      [1 0 -1 0 0 0 0];

internalField   nonuniform List<scalar> 
40
(
2.2223e-06
3.90749e-07
1.31584e-06
8.54821e-07
3.45856e-07
9.62544e-07
-4.77674e-07
8.49822e-07
7.0061e-07
2.24351e-06
7.60958e-07
1.32499e-06
1.72426e-06
3.35238e-07
1.9489e-06
-4.83495e-07
1.69765e-06
1.39391e-06
2.21999e-06
1.15592e-06
1.30184e-06
2.59831e-06
3.2283e-07
2.93249e-06
-4.78183e-07
2.53319e-06
2.07052e-06
2.26417e-06
1.50856e-06
1.32328e-06
3.50153e-06
3.1555e-07
3.95555e-06
-4.98878e-07
3.39024e-06
2.69193e-06
2.27485e-06
1.30106e-06
2.46861e-07
-5.84137e-07
)
;

boundaryField
{
    fuel
    {
        type            calculated;
        value           nonuniform List<scalar> 5(-2.63417e-06 -2.63417e-06 -2.63417e-06 -2.63417e-06 -2.63417e-06);
    }
    air
    {
        type            calculated;
        value           nonuniform List<scalar> 0();
    }
    outlet
    {
        type            calculated;
        value           nonuniform List<scalar> 5(1.85226e-06 4.44449e-06 5.03731e-06 4.27293e-06 3.18415e-06);
    }
    frontAndBack
    {
        type            empty;
        value           nonuniform List<scalar> 0();
    }
    procBoundary2to0
    {
        type            processor;
        value           nonuniform List<scalar> 5(-3.8119e-11 -1.00476e-10 -1.44786e-10 -1.78111e-10 -2.77039e-10);
    }
    procBoundary2to3
    {
        type            processor;
        value           nonuniform List<scalar> 5(-1.15849e-06 -1.15573e-06 -1.13196e-06 -1.09427e-06 -1.04729e-06);
    }
}


// ************************************************************************* //
