/*--------------------------------*- C++ -*----------------------------------*\
  =========                 |
  \\      /  F ield         | OpenFOAM: The Open Source CFD Toolbox
   \\    /   O peration     | Website:  https://openfoam.org
    \\  /    A nd           | Version:  8
     \\/     M anipulation  |
\*---------------------------------------------------------------------------*/
FoamFile
{
    version     2.0;
    format      ascii;
    class       volScalarField;
    location    "0.1";
    object      T;
}
// * * * * * * * * * * * * * * * * * * * * * * * * * * * * * * * * * * * * * //

dimensions      [0 0 0 1 0 0 0];

internalField   nonuniform List<scalar> 
25
(
301.293
347.036
502.516
859.762
1289.04
301.185
346.422
501.485
859.821
1288.25
301.059
345.909
500.572
859.106
1285.98
300.834
344.776
498.544
859.037
1282.85
300.649
343.834
497.462
863.927
1280.6
)
;

boundaryField
{
    fuel
    {
        type            fixedValue;
        value           uniform 293;
    }
    air
    {
        type            fixedValue;
        value           nonuniform List<scalar> 0();
    }
    outlet
    {
        type            inletOutlet;
        inletValue      uniform 293;
        value           nonuniform List<scalar> 5(300.84 344.389 497.229 861.342 1278);
    }
    frontAndBack
    {
        type            empty;
    }
    procBoundary2to0
    {
        type            processor;
        value           nonuniform List<scalar> 5(301.293 347.036 502.516 859.768 1289.07);
    }
    procBoundary2to3
    {
        type            processor;
        value           nonuniform List<scalar> 5(1648.36 1647.71 1645.2 1641.27 1637.01);
    }
}


// ************************************************************************* //
