/*--------------------------------*- C++ -*----------------------------------*\
  =========                 |
  \\      /  F ield         | OpenFOAM: The Open Source CFD Toolbox
   \\    /   O peration     | Website:  https://openfoam.org
    \\  /    A nd           | Version:  8
     \\/     M anipulation  |
\*---------------------------------------------------------------------------*/
FoamFile
{
    version     2.0;
    format      ascii;
    class       volScalarField;
    location    "0.15";
    object      C2H3;
}
// * * * * * * * * * * * * * * * * * * * * * * * * * * * * * * * * * * * * * //

dimensions      [0 0 0 0 0 0 0];

internalField   nonuniform List<scalar> 
25
(
7.10018e-14
5.53839e-12
2.89144e-10
6.74279e-09
6.20508e-08
7.357e-14
5.75065e-12
3.01096e-10
7.0576e-09
6.47711e-08
8.18528e-14
6.41945e-12
3.3729e-10
8.03439e-09
7.48807e-08
9.43755e-14
7.45526e-12
3.95659e-10
9.65751e-09
9.07148e-08
1.11431e-13
8.86948e-12
4.74178e-10
1.17792e-08
1.07433e-07
)
;

boundaryField
{
    fuel
    {
        type            fixedValue;
        value           uniform 0;
    }
    air
    {
        type            fixedValue;
        value           nonuniform List<scalar> 0();
    }
    outlet
    {
        type            inletOutlet;
        inletValue      uniform 0;
        value           nonuniform List<scalar> 5(1.11431e-13 8.86948e-12 4.74178e-10 1.17792e-08 1.07433e-07);
    }
    frontAndBack
    {
        type            empty;
    }
    procBoundary2to0
    {
        type            processor;
        value           nonuniform List<scalar> 5(7.14754e-14 5.57535e-12 2.91076e-10 6.79317e-09 6.2495e-08);
    }
    procBoundary2to3
    {
        type            processor;
        value           nonuniform List<scalar> 5(3.41992e-07 3.56255e-07 4.2163e-07 4.94849e-07 6.11181e-07);
    }
}


// ************************************************************************* //
