/*--------------------------------*- C++ -*----------------------------------*\
  =========                 |
  \\      /  F ield         | OpenFOAM: The Open Source CFD Toolbox
   \\    /   O peration     | Website:  https://openfoam.org
    \\  /    A nd           | Version:  8
     \\/     M anipulation  |
\*---------------------------------------------------------------------------*/
FoamFile
{
    version     2.0;
    format      ascii;
    class       volScalarField;
    location    "0.15";
    object      C2H4;
}
// * * * * * * * * * * * * * * * * * * * * * * * * * * * * * * * * * * * * * //

dimensions      [0 0 0 0 0 0 0];

internalField   nonuniform List<scalar> 
25
(
7.59413e-06
5.04898e-05
0.000170027
0.000341644
0.000440815
7.57575e-06
5.03924e-05
0.000170293
0.000343856
0.000447461
7.6115e-06
5.08772e-05
0.000172512
0.000350015
0.000462897
7.61063e-06
5.10253e-05
0.00017455
0.000354645
0.000455693
7.63384e-06
5.14745e-05
0.000178294
0.000365627
0.00047246
)
;

boundaryField
{
    fuel
    {
        type            fixedValue;
        value           uniform 0;
    }
    air
    {
        type            fixedValue;
        value           nonuniform List<scalar> 0();
    }
    outlet
    {
        type            inletOutlet;
        inletValue      uniform 0;
        value           nonuniform List<scalar> 5(7.63384e-06 5.14745e-05 0.000178294 0.000365627 0.00047246);
    }
    frontAndBack
    {
        type            empty;
    }
    procBoundary2to0
    {
        type            processor;
        value           nonuniform List<scalar> 5(7.59762e-06 5.05574e-05 0.000170571 0.00034284 0.000441368);
    }
    procBoundary2to3
    {
        type            processor;
        value           nonuniform List<scalar> 5(0.000143887 0.000150887 0.000178162 0.000221612 0.00028877);
    }
}


// ************************************************************************* //
