/*--------------------------------*- C++ -*----------------------------------*\
  =========                 |
  \\      /  F ield         | OpenFOAM: The Open Source CFD Toolbox
   \\    /   O peration     | Website:  https://openfoam.org
    \\  /    A nd           | Version:  8
     \\/     M anipulation  |
\*---------------------------------------------------------------------------*/
FoamFile
{
    version     2.0;
    format      ascii;
    class       volScalarField;
    location    "0.15";
    object      C2H5;
}
// * * * * * * * * * * * * * * * * * * * * * * * * * * * * * * * * * * * * * //

dimensions      [0 0 0 0 0 0 0];

internalField   nonuniform List<scalar> 
25
(
1.2602e-10
9.05401e-10
5.12205e-09
1.24443e-08
7.96742e-08
1.25536e-10
9.05168e-10
5.1352e-09
1.24607e-08
8.08591e-08
1.25324e-10
9.1059e-10
5.18813e-09
1.28281e-08
8.69571e-08
1.24646e-10
9.12736e-10
5.24598e-09
1.30457e-08
9.24632e-08
1.24863e-10
9.24239e-10
5.39668e-09
1.4195e-08
1.05318e-07
)
;

boundaryField
{
    fuel
    {
        type            fixedValue;
        value           uniform 0;
    }
    air
    {
        type            fixedValue;
        value           nonuniform List<scalar> 0();
    }
    outlet
    {
        type            inletOutlet;
        inletValue      uniform 0;
        value           nonuniform List<scalar> 5(1.24863e-10 9.24239e-10 5.39668e-09 1.4195e-08 1.05318e-07);
    }
    frontAndBack
    {
        type            empty;
    }
    procBoundary2to0
    {
        type            processor;
        value           nonuniform List<scalar> 5(1.26135e-10 9.06958e-10 5.13508e-09 1.25121e-08 8.00584e-08);
    }
    procBoundary2to3
    {
        type            processor;
        value           nonuniform List<scalar> 5(2.18822e-07 2.29703e-07 2.82072e-07 3.38119e-07 4.32604e-07);
    }
}


// ************************************************************************* //
