/*--------------------------------*- C++ -*----------------------------------*\
  =========                 |
  \\      /  F ield         | OpenFOAM: The Open Source CFD Toolbox
   \\    /   O peration     | Website:  https://openfoam.org
    \\  /    A nd           | Version:  8
     \\/     M anipulation  |
\*---------------------------------------------------------------------------*/
FoamFile
{
    version     2.0;
    format      ascii;
    class       volScalarField;
    location    "0.15";
    object      C2H6;
}
// * * * * * * * * * * * * * * * * * * * * * * * * * * * * * * * * * * * * * //

dimensions      [0 0 0 0 0 0 0];

internalField   nonuniform List<scalar> 
25
(
4.34722e-06
3.36274e-05
0.000142252
0.000339487
0.000386492
4.34231e-06
3.36e-05
0.00014274
0.000342057
0.000390132
4.37178e-06
3.39441e-05
0.000144562
0.00034736
0.000399069
4.37877e-06
3.40562e-05
0.000146273
0.000354221
0.000411209
4.40136e-06
3.43851e-05
0.000149274
0.000363768
0.000421528
)
;

boundaryField
{
    fuel
    {
        type            fixedValue;
        value           uniform 0;
    }
    air
    {
        type            fixedValue;
        value           nonuniform List<scalar> 0();
    }
    outlet
    {
        type            inletOutlet;
        inletValue      uniform 0;
        value           nonuniform List<scalar> 5(4.40136e-06 3.43851e-05 0.000149274 0.000363768 0.000421528);
    }
    frontAndBack
    {
        type            empty;
    }
    procBoundary2to0
    {
        type            processor;
        value           nonuniform List<scalar> 5(4.34775e-06 3.36381e-05 0.000142339 0.00033965 0.000386458);
    }
    procBoundary2to3
    {
        type            processor;
        value           nonuniform List<scalar> 5(5.1164e-05 5.22391e-05 5.59681e-05 6.17807e-05 7.03657e-05);
    }
}


// ************************************************************************* //
