/*--------------------------------*- C++ -*----------------------------------*\
  =========                 |
  \\      /  F ield         | OpenFOAM: The Open Source CFD Toolbox
   \\    /   O peration     | Website:  https://openfoam.org
    \\  /    A nd           | Version:  8
     \\/     M anipulation  |
\*---------------------------------------------------------------------------*/
FoamFile
{
    version     2.0;
    format      ascii;
    class       volScalarField;
    location    "0.15";
    object      C3H8;
}
// * * * * * * * * * * * * * * * * * * * * * * * * * * * * * * * * * * * * * //

dimensions      [0 0 0 0 0 0 0];

internalField   nonuniform List<scalar> 
25
(
1.52747e-08
1.17516e-07
4.84117e-07
1.12111e-06
1.35864e-06
1.52425e-08
1.16998e-07
4.81506e-07
1.11834e-06
1.37207e-06
1.53391e-08
1.17868e-07
4.83687e-07
1.12011e-06
1.39376e-06
1.53537e-08
1.1779e-07
4.82328e-07
1.08944e-06
1.22011e-06
1.54255e-08
1.18513e-07
4.86405e-07
1.08191e-06
1.15362e-06
)
;

boundaryField
{
    fuel
    {
        type            fixedValue;
        value           uniform 0;
    }
    air
    {
        type            fixedValue;
        value           nonuniform List<scalar> 0();
    }
    outlet
    {
        type            inletOutlet;
        inletValue      uniform 0;
        value           nonuniform List<scalar> 5(1.54255e-08 1.18513e-07 4.86405e-07 1.08191e-06 1.15362e-06);
    }
    frontAndBack
    {
        type            empty;
    }
    procBoundary2to0
    {
        type            processor;
        value           nonuniform List<scalar> 5(1.5297e-08 1.17932e-07 4.87303e-07 1.12726e-06 1.35951e-06);
    }
    procBoundary2to3
    {
        type            processor;
        value           nonuniform List<scalar> 5(1.54244e-07 1.55889e-07 1.58481e-07 1.47014e-07 1.45703e-07);
    }
}


// ************************************************************************* //
