/*--------------------------------*- C++ -*----------------------------------*\
  =========                 |
  \\      /  F ield         | OpenFOAM: The Open Source CFD Toolbox
   \\    /   O peration     | Website:  https://openfoam.org
    \\  /    A nd           | Version:  8
     \\/     M anipulation  |
\*---------------------------------------------------------------------------*/
FoamFile
{
    version     2.0;
    format      ascii;
    class       volScalarField;
    location    "0.15";
    object      CH2O;
}
// * * * * * * * * * * * * * * * * * * * * * * * * * * * * * * * * * * * * * //

dimensions      [0 0 0 0 0 0 0];

internalField   nonuniform List<scalar> 
25
(
5.02438e-07
4.01384e-06
1.72266e-05
3.84313e-05
3.50589e-05
5.04742e-07
4.02699e-06
1.73677e-05
3.88315e-05
3.50017e-05
5.11996e-07
4.08159e-06
1.76217e-05
3.9471e-05
3.53439e-05
5.1691e-07
4.10898e-06
1.79059e-05
4.11181e-05
4.12529e-05
5.23022e-07
4.15773e-06
1.829e-05
4.24984e-05
4.37657e-05
)
;

boundaryField
{
    fuel
    {
        type            fixedValue;
        value           uniform 0;
    }
    air
    {
        type            fixedValue;
        value           nonuniform List<scalar> 0();
    }
    outlet
    {
        type            inletOutlet;
        inletValue      uniform 0;
        value           nonuniform List<scalar> 5(5.23022e-07 4.15773e-06 1.829e-05 4.24984e-05 4.37657e-05);
    }
    frontAndBack
    {
        type            empty;
    }
    procBoundary2to0
    {
        type            processor;
        value           nonuniform List<scalar> 5(5.01948e-07 4.00484e-06 1.71593e-05 3.83049e-05 3.50307e-05);
    }
    procBoundary2to3
    {
        type            processor;
        value           nonuniform List<scalar> 5(1.26254e-05 1.27936e-05 1.38216e-05 1.54968e-05 1.72306e-05);
    }
}


// ************************************************************************* //
