/*--------------------------------*- C++ -*----------------------------------*\
  =========                 |
  \\      /  F ield         | OpenFOAM: The Open Source CFD Toolbox
   \\    /   O peration     | Website:  https://openfoam.org
    \\  /    A nd           | Version:  8
     \\/     M anipulation  |
\*---------------------------------------------------------------------------*/
FoamFile
{
    version     2.0;
    format      ascii;
    class       volScalarField;
    location    "0.15";
    object      HCN;
}
// * * * * * * * * * * * * * * * * * * * * * * * * * * * * * * * * * * * * * //

dimensions      [0 0 0 0 0 0 0];

internalField   nonuniform List<scalar> 
25
(
5.33561e-08
3.63433e-07
1.40319e-06
3.49645e-06
5.25871e-06
5.27974e-08
3.59936e-07
1.39171e-06
3.45325e-06
5.14091e-06
5.23346e-08
3.58371e-07
1.38066e-06
3.37584e-06
4.92062e-06
5.14767e-08
3.53246e-07
1.36159e-06
3.28297e-06
4.63993e-06
5.08352e-08
3.5042e-07
1.35578e-06
3.23055e-06
4.40528e-06
)
;

boundaryField
{
    fuel
    {
        type            fixedValue;
        value           uniform 0;
    }
    air
    {
        type            fixedValue;
        value           nonuniform List<scalar> 0();
    }
    outlet
    {
        type            inletOutlet;
        inletValue      uniform 0;
        value           nonuniform List<scalar> 5(5.08352e-08 3.5042e-07 1.35578e-06 3.23055e-06 4.40528e-06);
    }
    frontAndBack
    {
        type            empty;
    }
    procBoundary2to0
    {
        type            processor;
        value           nonuniform List<scalar> 5(5.33601e-08 3.63451e-07 1.40323e-06 3.49655e-06 5.25901e-06);
    }
    procBoundary2to3
    {
        type            processor;
        value           nonuniform List<scalar> 5(6.396e-06 6.19004e-06 5.79841e-06 5.26937e-06 4.81778e-06);
    }
}


// ************************************************************************* //
