/*--------------------------------*- C++ -*----------------------------------*\
  =========                 |
  \\      /  F ield         | OpenFOAM: The Open Source CFD Toolbox
   \\    /   O peration     | Website:  https://openfoam.org
    \\  /    A nd           | Version:  8
     \\/     M anipulation  |
\*---------------------------------------------------------------------------*/
FoamFile
{
    version     2.0;
    format      ascii;
    class       volScalarField;
    location    "0.15";
    object      HCO;
}
// * * * * * * * * * * * * * * * * * * * * * * * * * * * * * * * * * * * * * //

dimensions      [0 0 0 0 0 0 0];

internalField   nonuniform List<scalar> 
25
(
4.69684e-13
4.63975e-12
8.4673e-11
8.14772e-10
6.70695e-09
4.69754e-13
4.65566e-12
8.55232e-11
8.24861e-10
6.75645e-09
4.71134e-13
4.72556e-12
8.78975e-11
8.61963e-10
7.12718e-09
4.71188e-13
4.76952e-12
8.93148e-11
8.61858e-10
6.83378e-09
4.78426e-13
4.91983e-12
9.37813e-11
9.25232e-10
7.0821e-09
)
;

boundaryField
{
    fuel
    {
        type            fixedValue;
        value           uniform 0;
    }
    air
    {
        type            fixedValue;
        value           nonuniform List<scalar> 0();
    }
    outlet
    {
        type            inletOutlet;
        inletValue      uniform 0;
        value           nonuniform List<scalar> 5(4.78426e-13 4.91983e-12 9.37813e-11 9.25232e-10 7.0821e-09);
    }
    frontAndBack
    {
        type            empty;
    }
    procBoundary2to0
    {
        type            processor;
        value           nonuniform List<scalar> 5(4.69848e-13 4.64413e-12 8.48515e-11 8.19211e-10 6.74697e-09);
    }
    procBoundary2to3
    {
        type            processor;
        value           nonuniform List<scalar> 5(2.88594e-08 2.90429e-08 3.20388e-08 3.3005e-08 3.55835e-08);
    }
}


// ************************************************************************* //
