/*--------------------------------*- C++ -*----------------------------------*\
  =========                 |
  \\      /  F ield         | OpenFOAM: The Open Source CFD Toolbox
   \\    /   O peration     | Website:  https://openfoam.org
    \\  /    A nd           | Version:  8
     \\/     M anipulation  |
\*---------------------------------------------------------------------------*/
FoamFile
{
    version     2.0;
    format      ascii;
    class       volScalarField;
    location    "0.15";
    object      HO2;
}
// * * * * * * * * * * * * * * * * * * * * * * * * * * * * * * * * * * * * * //

dimensions      [0 0 0 0 0 0 0];

internalField   nonuniform List<scalar> 
25
(
4.89746e-09
4.83569e-08
3.44888e-07
5.65992e-07
7.70508e-07
4.86627e-09
4.80256e-08
3.43313e-07
5.66105e-07
7.67858e-07
4.83866e-09
4.78008e-08
3.41292e-07
5.66841e-07
7.59897e-07
4.76628e-09
4.70618e-08
3.3688e-07
5.60907e-07
6.59082e-07
4.72201e-09
4.66907e-08
3.36025e-07
5.62386e-07
6.40891e-07
)
;

boundaryField
{
    fuel
    {
        type            fixedValue;
        value           uniform 0;
    }
    air
    {
        type            fixedValue;
        value           nonuniform List<scalar> 0();
    }
    outlet
    {
        type            inletOutlet;
        inletValue      uniform 0;
        value           nonuniform List<scalar> 5(4.72201e-09 4.66907e-08 3.36025e-07 5.62386e-07 6.40891e-07);
    }
    frontAndBack
    {
        type            empty;
    }
    procBoundary2to0
    {
        type            processor;
        value           nonuniform List<scalar> 5(4.89612e-09 4.83542e-08 3.44863e-07 5.65921e-07 7.70338e-07);
    }
    procBoundary2to3
    {
        type            processor;
        value           nonuniform List<scalar> 5(1.03446e-06 1.0455e-06 1.08531e-06 1.13314e-06 1.15319e-06);
    }
}


// ************************************************************************* //
