/*--------------------------------*- C++ -*----------------------------------*\
  =========                 |
  \\      /  F ield         | OpenFOAM: The Open Source CFD Toolbox
   \\    /   O peration     | Website:  https://openfoam.org
    \\  /    A nd           | Version:  8
     \\/     M anipulation  |
\*---------------------------------------------------------------------------*/
FoamFile
{
    version     2.0;
    format      ascii;
    class       volScalarField;
    location    "0.15";
    object      N2;
}
// * * * * * * * * * * * * * * * * * * * * * * * * * * * * * * * * * * * * * //

dimensions      [0 0 0 0 0 0 0];

internalField   nonuniform List<scalar> 
25
(
0.00528702
0.0408075
0.176602
0.4427
0.624404
0.00527539
0.0406861
0.176612
0.44348
0.624288
0.00529947
0.0409347
0.17765
0.444749
0.623838
0.00529399
0.0408581
0.178224
0.44687
0.62316
0.0053075
0.0410444
0.180396
0.452892
0.622755
)
;

boundaryField
{
    fuel
    {
        type            fixedValue;
        value           uniform 0;
    }
    air
    {
        type            fixedValue;
        value           nonuniform List<scalar> 0();
    }
    outlet
    {
        type            inletOutlet;
        inletValue      uniform 1;
        value           nonuniform List<scalar> 5(0.0053075 0.0410444 0.180396 0.452892 0.622755);
    }
    frontAndBack
    {
        type            empty;
    }
    procBoundary2to0
    {
        type            processor;
        value           nonuniform List<scalar> 5(0.00528703 0.0408078 0.176604 0.442703 0.624404);
    }
    procBoundary2to3
    {
        type            processor;
        value           nonuniform List<scalar> 5(0.708017 0.707793 0.707151 0.705989 0.704459);
    }
}


// ************************************************************************* //
