/*--------------------------------*- C++ -*----------------------------------*\
  =========                 |
  \\      /  F ield         | OpenFOAM: The Open Source CFD Toolbox
   \\    /   O peration     | Website:  https://openfoam.org
    \\  /    A nd           | Version:  8
     \\/     M anipulation  |
\*---------------------------------------------------------------------------*/
FoamFile
{
    version     2.0;
    format      ascii;
    class       volScalarField;
    location    "0.15";
    object      NCO;
}
// * * * * * * * * * * * * * * * * * * * * * * * * * * * * * * * * * * * * * //

dimensions      [0 0 0 0 0 0 0];

internalField   nonuniform List<scalar> 
25
(
4.88288e-15
5.60671e-14
5.57982e-13
4.03822e-12
4.01515e-11
4.79503e-15
5.48565e-14
5.46132e-13
4.01613e-12
3.97508e-11
4.65008e-15
5.29158e-14
5.26991e-13
4.00097e-12
3.95921e-11
4.45412e-15
5.02805e-14
5.02542e-13
3.90449e-12
3.77896e-11
4.33149e-15
4.86286e-14
4.9049e-13
3.99739e-12
3.68513e-11
)
;

boundaryField
{
    fuel
    {
        type            fixedValue;
        value           uniform 0;
    }
    air
    {
        type            fixedValue;
        value           nonuniform List<scalar> 0();
    }
    outlet
    {
        type            inletOutlet;
        inletValue      uniform 0;
        value           nonuniform List<scalar> 5(4.33149e-15 4.86286e-14 4.9049e-13 3.99739e-12 3.68513e-11);
    }
    frontAndBack
    {
        type            empty;
    }
    procBoundary2to0
    {
        type            processor;
        value           nonuniform List<scalar> 5(4.88328e-15 5.60636e-14 5.58548e-13 4.06384e-12 4.03758e-11);
    }
    procBoundary2to3
    {
        type            processor;
        value           nonuniform List<scalar> 5(2.1274e-10 2.10799e-10 2.13127e-10 2.06192e-10 2.04709e-10);
    }
}


// ************************************************************************* //
