/*--------------------------------*- C++ -*----------------------------------*\
  =========                 |
  \\      /  F ield         | OpenFOAM: The Open Source CFD Toolbox
   \\    /   O peration     | Website:  https://openfoam.org
    \\  /    A nd           | Version:  8
     \\/     M anipulation  |
\*---------------------------------------------------------------------------*/
FoamFile
{
    version     2.0;
    format      ascii;
    class       volScalarField;
    location    "0.15";
    object      NO2;
}
// * * * * * * * * * * * * * * * * * * * * * * * * * * * * * * * * * * * * * //

dimensions      [0 0 0 0 0 0 0];

internalField   nonuniform List<scalar> 
25
(
1.88852e-08
1.48427e-07
5.31234e-07
5.26896e-07
2.35637e-07
1.88295e-08
1.47865e-07
5.3059e-07
5.26491e-07
2.35377e-07
1.89016e-08
1.48616e-07
5.32651e-07
5.26402e-07
2.33176e-07
1.88415e-08
1.47952e-07
5.3194e-07
5.22116e-07
2.14068e-07
1.88398e-08
1.48055e-07
5.34236e-07
5.15186e-07
2.05148e-07
)
;

boundaryField
{
    fuel
    {
        type            fixedValue;
        value           uniform 0;
    }
    air
    {
        type            fixedValue;
        value           nonuniform List<scalar> 0();
    }
    outlet
    {
        type            inletOutlet;
        inletValue      uniform 0;
        value           nonuniform List<scalar> 5(1.88398e-08 1.48055e-07 5.34236e-07 5.15186e-07 2.05148e-07);
    }
    frontAndBack
    {
        type            empty;
    }
    procBoundary2to0
    {
        type            processor;
        value           nonuniform List<scalar> 5(1.88866e-08 1.48448e-07 5.31406e-07 5.27196e-07 2.35719e-07);
    }
    procBoundary2to3
    {
        type            processor;
        value           nonuniform List<scalar> 5(1.65391e-07 1.67677e-07 1.7301e-07 1.76706e-07 1.7641e-07);
    }
}


// ************************************************************************* //
