/*--------------------------------*- C++ -*----------------------------------*\
  =========                 |
  \\      /  F ield         | OpenFOAM: The Open Source CFD Toolbox
   \\    /   O peration     | Website:  https://openfoam.org
    \\  /    A nd           | Version:  8
     \\/     M anipulation  |
\*---------------------------------------------------------------------------*/
FoamFile
{
    version     2.0;
    format      ascii;
    class       volScalarField;
    location    "0.15";
    object      OH;
}
// * * * * * * * * * * * * * * * * * * * * * * * * * * * * * * * * * * * * * //

dimensions      [0 0 0 0 0 0 0];

internalField   nonuniform List<scalar> 
25
(
1.39962e-11
1.10271e-09
5.8744e-08
1.57763e-06
1.5775e-05
1.42369e-11
1.12365e-09
5.99786e-08
1.61185e-06
1.60714e-05
1.4797e-11
1.16733e-09
6.21994e-08
1.66657e-06
1.66004e-05
1.56151e-11
1.23598e-09
6.61041e-08
1.77363e-06
1.74985e-05
1.6957e-11
1.34685e-09
7.21679e-08
1.93126e-06
1.81575e-05
)
;

boundaryField
{
    fuel
    {
        type            fixedValue;
        value           uniform 0;
    }
    air
    {
        type            fixedValue;
        value           nonuniform List<scalar> 0();
    }
    outlet
    {
        type            inletOutlet;
        inletValue      uniform 0;
        value           nonuniform List<scalar> 5(1.6957e-11 1.34685e-09 7.21679e-08 1.93126e-06 1.81575e-05);
    }
    frontAndBack
    {
        type            empty;
    }
    procBoundary2to0
    {
        type            processor;
        value           nonuniform List<scalar> 5(1.40026e-11 1.10321e-09 5.877e-08 1.57831e-06 1.5781e-05);
    }
    procBoundary2to3
    {
        type            processor;
        value           nonuniform List<scalar> 5(8.73742e-05 8.92747e-05 9.30814e-05 0.000100141 0.000105719);
    }
}


// ************************************************************************* //
