/*--------------------------------*- C++ -*----------------------------------*\
  =========                 |
  \\      /  F ield         | OpenFOAM: The Open Source CFD Toolbox
   \\    /   O peration     | Website:  https://openfoam.org
    \\  /    A nd           | Version:  8
     \\/     M anipulation  |
\*---------------------------------------------------------------------------*/
FoamFile
{
    version     2.0;
    format      ascii;
    class       volScalarField;
    location    "0.15";
    object      T;
}
// * * * * * * * * * * * * * * * * * * * * * * * * * * * * * * * * * * * * * //

dimensions      [0 0 0 1 0 0 0];

internalField   nonuniform List<scalar> 
25
(
298.458
337.681
499.112
882.274
1323.4
298.436
337.524
499.14
883.776
1323.28
298.448
337.77
500.413
886.262
1322.45
298.426
337.66
501.183
890.498
1321.45
298.427
337.859
503.934
901.978
1321.65
)
;

boundaryField
{
    fuel
    {
        type            fixedValue;
        value           uniform 293;
    }
    air
    {
        type            fixedValue;
        value           nonuniform List<scalar> 0();
    }
    outlet
    {
        type            inletOutlet;
        inletValue      uniform 293;
        value           nonuniform List<scalar> 5(298.439 337.857 503.646 901.236 1320.9);
    }
    frontAndBack
    {
        type            empty;
    }
    procBoundary2to0
    {
        type            processor;
        value           nonuniform List<scalar> 5(298.458 337.682 499.114 882.279 1323.4);
    }
    procBoundary2to3
    {
        type            processor;
        value           nonuniform List<scalar> 5(1686.67 1685.83 1683.74 1680.46 1677.03);
    }
}


// ************************************************************************* //
