/*--------------------------------*- C++ -*----------------------------------*\
  =========                 |
  \\      /  F ield         | OpenFOAM: The Open Source CFD Toolbox
   \\    /   O peration     | Website:  https://openfoam.org
    \\  /    A nd           | Version:  8
     \\/     M anipulation  |
\*---------------------------------------------------------------------------*/
FoamFile
{
    version     2.0;
    format      ascii;
    class       volScalarField;
    location    "0.15";
    object      CH2OH;
}
// * * * * * * * * * * * * * * * * * * * * * * * * * * * * * * * * * * * * * //

dimensions      [0 0 0 0 0 0 0];

internalField   nonuniform List<scalar> 
25
(
2.78955e-08
2.70693e-09
1.08553e-10
1.51711e-12
1.28336e-14
2.79723e-08
2.73707e-09
1.1089e-10
1.56502e-12
1.32864e-14
3.03207e-08
2.96423e-09
1.22289e-10
1.74524e-12
1.48515e-14
3.09098e-08
3.10913e-09
1.32596e-10
1.92219e-12
1.64359e-14
3.19469e-08
3.29264e-09
1.4542e-10
2.15129e-12
1.80222e-14
)
;

boundaryField
{
    fuel
    {
        type            fixedValue;
        value           nonuniform List<scalar> 0();
    }
    air
    {
        type            fixedValue;
        value           uniform 0;
    }
    outlet
    {
        type            inletOutlet;
        inletValue      uniform 0;
        value           nonuniform List<scalar> 5(3.19469e-08 3.29264e-09 1.4542e-10 2.15129e-12 1.80222e-14);
    }
    frontAndBack
    {
        type            empty;
    }
    procBoundary3to1
    {
        type            processor;
        value           nonuniform List<scalar> 5(2.80304e-08 2.72622e-09 1.09393e-10 1.5291e-12 1.29349e-14);
    }
    procBoundary3to2
    {
        type            processor;
        value           nonuniform List<scalar> 5(5.02839e-09 5.05377e-09 5.35788e-09 5.43243e-09 5.51526e-09);
    }
}


// ************************************************************************* //
