/*--------------------------------*- C++ -*----------------------------------*\
  =========                 |
  \\      /  F ield         | OpenFOAM: The Open Source CFD Toolbox
   \\    /   O peration     | Website:  https://openfoam.org
    \\  /    A nd           | Version:  8
     \\/     M anipulation  |
\*---------------------------------------------------------------------------*/
FoamFile
{
    version     2.0;
    format      ascii;
    class       volScalarField;
    location    "0.15";
    object      CH3CHO;
}
// * * * * * * * * * * * * * * * * * * * * * * * * * * * * * * * * * * * * * //

dimensions      [0 0 0 0 0 0 0];

internalField   nonuniform List<scalar> 
25
(
6.86624e-09
9.90835e-10
1.54297e-09
5.38449e-10
1.41607e-10
7.42228e-09
1.07658e-09
1.46645e-09
6.16517e-10
1.51381e-10
1.03642e-08
1.76701e-09
3.73495e-09
8.01417e-10
1.66917e-10
1.40693e-08
2.65623e-09
6.42888e-09
1.01871e-09
1.86536e-10
2.09769e-08
3.61933e-09
8.37393e-09
1.21764e-09
2.07861e-10
)
;

boundaryField
{
    fuel
    {
        type            fixedValue;
        value           nonuniform List<scalar> 0();
    }
    air
    {
        type            fixedValue;
        value           uniform 0;
    }
    outlet
    {
        type            inletOutlet;
        inletValue      uniform 0;
        value           nonuniform List<scalar> 5(2.09769e-08 3.61933e-09 8.37393e-09 1.21764e-09 2.07861e-10);
    }
    frontAndBack
    {
        type            empty;
    }
    procBoundary3to1
    {
        type            processor;
        value           nonuniform List<scalar> 5(6.93508e-09 1.00127e-09 1.54624e-09 5.3838e-10 1.41571e-10);
    }
    procBoundary3to2
    {
        type            processor;
        value           nonuniform List<scalar> 5(1.58817e-08 1.60082e-08 1.65014e-08 1.69997e-08 1.76483e-08);
    }
}


// ************************************************************************* //
