/*--------------------------------*- C++ -*----------------------------------*\
  =========                 |
  \\      /  F ield         | OpenFOAM: The Open Source CFD Toolbox
   \\    /   O peration     | Website:  https://openfoam.org
    \\  /    A nd           | Version:  8
     \\/     M anipulation  |
\*---------------------------------------------------------------------------*/
FoamFile
{
    version     2.0;
    format      ascii;
    class       volScalarField;
    location    "0.15";
    object      CH3OH;
}
// * * * * * * * * * * * * * * * * * * * * * * * * * * * * * * * * * * * * * //

dimensions      [0 0 0 0 0 0 0];

internalField   nonuniform List<scalar> 
25
(
1.60652e-06
5.92898e-07
2.08553e-06
5.31759e-07
6.63343e-08
1.65088e-06
6.23583e-07
2.09576e-06
5.97484e-07
7.16144e-08
1.89225e-06
9.34093e-07
3.70447e-06
7.36168e-07
7.92381e-08
2.19168e-06
1.18942e-06
4.8568e-06
8.51352e-07
8.68098e-08
2.49856e-06
1.34663e-06
5.61691e-06
9.53303e-07
9.44763e-08
)
;

boundaryField
{
    fuel
    {
        type            fixedValue;
        value           nonuniform List<scalar> 0();
    }
    air
    {
        type            fixedValue;
        value           uniform 0;
    }
    outlet
    {
        type            inletOutlet;
        inletValue      uniform 0;
        value           nonuniform List<scalar> 5(2.49856e-06 1.34663e-06 5.61691e-06 9.53303e-07 9.44763e-08);
    }
    frontAndBack
    {
        type            empty;
    }
    procBoundary3to1
    {
        type            processor;
        value           nonuniform List<scalar> 5(1.61129e-06 5.93995e-07 2.08741e-06 5.31801e-07 6.63338e-08);
    }
    procBoundary3to2
    {
        type            processor;
        value           nonuniform List<scalar> 5(3.27331e-07 3.32149e-07 3.60997e-07 3.9646e-07 4.33433e-07);
    }
}


// ************************************************************************* //
