/*--------------------------------*- C++ -*----------------------------------*\
  =========                 |
  \\      /  F ield         | OpenFOAM: The Open Source CFD Toolbox
   \\    /   O peration     | Website:  https://openfoam.org
    \\  /    A nd           | Version:  8
     \\/     M anipulation  |
\*---------------------------------------------------------------------------*/
FoamFile
{
    version     2.0;
    format      ascii;
    class       volScalarField;
    location    "0.15";
    object      CH3O;
}
// * * * * * * * * * * * * * * * * * * * * * * * * * * * * * * * * * * * * * //

dimensions      [0 0 0 0 0 0 0];

internalField   nonuniform List<scalar> 
25
(
1.54658e-09
2.5881e-10
5.52596e-10
8.70106e-10
1.62494e-11
1.58795e-09
2.01423e-10
1.56338e-10
9.01675e-10
1.70767e-11
1.92681e-09
2.90882e-10
5.41861e-10
1.00305e-09
1.88623e-11
2.17508e-09
3.3019e-10
5.54241e-10
1.15199e-09
2.16413e-11
2.7102e-09
3.87706e-10
6.03245e-10
1.36373e-09
2.50684e-11
)
;

boundaryField
{
    fuel
    {
        type            fixedValue;
        value           nonuniform List<scalar> 0();
    }
    air
    {
        type            fixedValue;
        value           uniform 0;
    }
    outlet
    {
        type            inletOutlet;
        inletValue      uniform 0;
        value           nonuniform List<scalar> 5(2.7102e-09 3.87706e-10 6.03245e-10 1.36373e-09 2.50684e-11);
    }
    frontAndBack
    {
        type            empty;
    }
    procBoundary3to1
    {
        type            processor;
        value           nonuniform List<scalar> 5(1.55726e-09 2.60339e-10 5.52593e-10 8.69599e-10 1.62418e-11);
    }
    procBoundary3to2
    {
        type            processor;
        value           nonuniform List<scalar> 5(1.92318e-09 1.92004e-09 1.93493e-09 1.63578e-09 1.61923e-09);
    }
}


// ************************************************************************* //
