/*--------------------------------*- C++ -*----------------------------------*\
  =========                 |
  \\      /  F ield         | OpenFOAM: The Open Source CFD Toolbox
   \\    /   O peration     | Website:  https://openfoam.org
    \\  /    A nd           | Version:  8
     \\/     M anipulation  |
\*---------------------------------------------------------------------------*/
FoamFile
{
    version     2.0;
    format      ascii;
    class       volScalarField;
    location    "0.15";
    object      CH4;
}
// * * * * * * * * * * * * * * * * * * * * * * * * * * * * * * * * * * * * * //

dimensions      [0 0 0 0 0 0 0];

internalField   nonuniform List<scalar> 
25
(
0.0189434
0.00193682
0.000549308
9.70264e-05
9.95167e-06
0.0190848
0.00196066
0.000559175
9.9948e-05
1.02176e-05
0.0195556
0.00203284
0.000584486
0.000104288
1.06487e-05
0.0204022
0.00216035
0.000621086
0.000109567
1.11822e-05
0.0215217
0.00232265
0.000665728
0.000116855
1.18201e-05
)
;

boundaryField
{
    fuel
    {
        type            fixedValue;
        value           nonuniform List<scalar> 0();
    }
    air
    {
        type            fixedValue;
        value           uniform 0;
    }
    outlet
    {
        type            inletOutlet;
        inletValue      uniform 0;
        value           nonuniform List<scalar> 5(0.0215217 0.00232265 0.000665728 0.000116855 1.18201e-05);
    }
    frontAndBack
    {
        type            empty;
    }
    procBoundary3to1
    {
        type            processor;
        value           nonuniform List<scalar> 5(0.0189456 0.00193715 0.000549296 9.70267e-05 9.95176e-06);
    }
    procBoundary3to2
    {
        type            processor;
        value           nonuniform List<scalar> 5(0.138767 0.138824 0.139231 0.139855 0.140036);
    }
}


// ************************************************************************* //
