/*--------------------------------*- C++ -*----------------------------------*\
  =========                 |
  \\      /  F ield         | OpenFOAM: The Open Source CFD Toolbox
   \\    /   O peration     | Website:  https://openfoam.org
    \\  /    A nd           | Version:  8
     \\/     M anipulation  |
\*---------------------------------------------------------------------------*/
FoamFile
{
    version     2.0;
    format      ascii;
    class       volScalarField;
    location    "0.15";
    object      CN;
}
// * * * * * * * * * * * * * * * * * * * * * * * * * * * * * * * * * * * * * //

dimensions      [0 0 0 0 0 0 0];

internalField   nonuniform List<scalar> 
25
(
1.49738e-10
1.44439e-11
5.7797e-13
8.03423e-15
6.66895e-17
1.40173e-10
1.36389e-11
5.51901e-13
7.7517e-15
6.45185e-17
1.25288e-10
1.23898e-11
5.15427e-13
7.35273e-15
6.14268e-17
1.04071e-10
1.0694e-11
4.63076e-13
6.73628e-15
5.65565e-17
8.23365e-11
9.00995e-12
4.10864e-13
6.14626e-15
5.0619e-17
)
;

boundaryField
{
    fuel
    {
        type            fixedValue;
        value           nonuniform List<scalar> 0();
    }
    air
    {
        type            fixedValue;
        value           uniform 0;
    }
    outlet
    {
        type            inletOutlet;
        inletValue      uniform 0;
        value           nonuniform List<scalar> 5(8.23365e-11 9.00995e-12 4.10864e-13 6.14626e-15 5.0619e-17);
    }
    frontAndBack
    {
        type            empty;
    }
    procBoundary3to1
    {
        type            processor;
        value           nonuniform List<scalar> 5(1.50046e-10 1.44875e-11 5.79868e-13 8.06133e-15 6.69184e-17);
    }
    procBoundary3to2
    {
        type            processor;
        value           nonuniform List<scalar> 5(2.68563e-11 2.52163e-11 2.25292e-11 1.88472e-11 1.5261e-11);
    }
}


// ************************************************************************* //
