/*--------------------------------*- C++ -*----------------------------------*\
  =========                 |
  \\      /  F ield         | OpenFOAM: The Open Source CFD Toolbox
   \\    /   O peration     | Website:  https://openfoam.org
    \\  /    A nd           | Version:  8
     \\/     M anipulation  |
\*---------------------------------------------------------------------------*/
FoamFile
{
    version     2.0;
    format      ascii;
    class       volScalarField;
    location    "0.15";
    object      CO;
}
// * * * * * * * * * * * * * * * * * * * * * * * * * * * * * * * * * * * * * //

dimensions      [0 0 0 0 0 0 0];

internalField   nonuniform List<scalar> 
25
(
0.0529864
0.00554482
0.00154104
0.000238927
2.13834e-05
0.0528005
0.00555653
0.00155461
0.000243827
2.1707e-05
0.0523977
0.00559218
0.0015915
0.000250404
2.22119e-05
0.0517884
0.00568144
0.00164343
0.000257605
2.27806e-05
0.0512871
0.00581185
0.00171332
0.000269393
2.35829e-05
)
;

boundaryField
{
    fuel
    {
        type            fixedValue;
        value           nonuniform List<scalar> 0();
    }
    air
    {
        type            fixedValue;
        value           uniform 0;
    }
    outlet
    {
        type            inletOutlet;
        inletValue      uniform 0;
        value           nonuniform List<scalar> 5(0.0512871 0.00581185 0.00171332 0.000269393 2.35829e-05);
    }
    frontAndBack
    {
        type            empty;
    }
    procBoundary3to1
    {
        type            processor;
        value           nonuniform List<scalar> 5(0.0529868 0.00554492 0.00154106 0.00023893 2.13836e-05);
    }
    procBoundary3to2
    {
        type            processor;
        value           nonuniform List<scalar> 5(0.0453471 0.0452219 0.0449601 0.0446133 0.0443402);
    }
}


// ************************************************************************* //
