/*--------------------------------*- C++ -*----------------------------------*\
  =========                 |
  \\      /  F ield         | OpenFOAM: The Open Source CFD Toolbox
   \\    /   O peration     | Website:  https://openfoam.org
    \\  /    A nd           | Version:  8
     \\/     M anipulation  |
\*---------------------------------------------------------------------------*/
FoamFile
{
    version     2.0;
    format      ascii;
    class       volScalarField;
    location    "0.15";
    object      H;
}
// * * * * * * * * * * * * * * * * * * * * * * * * * * * * * * * * * * * * * //

dimensions      [0 0 0 0 0 0 0];

internalField   nonuniform List<scalar> 
25
(
4.00271e-06
5.59803e-07
2.24634e-08
3.12676e-10
2.59843e-12
3.93349e-06
5.78388e-07
2.34173e-08
3.28633e-10
2.7357e-12
3.89326e-06
5.82128e-07
2.41861e-08
3.44542e-10
2.8791e-12
3.79143e-06
6.47433e-07
2.74688e-08
3.9533e-10
3.30604e-12
3.54748e-06
6.74994e-07
2.98489e-08
4.39624e-10
3.59795e-12
)
;

boundaryField
{
    fuel
    {
        type            fixedValue;
        value           nonuniform List<scalar> 0();
    }
    air
    {
        type            fixedValue;
        value           uniform 0;
    }
    outlet
    {
        type            inletOutlet;
        inletValue      uniform 0;
        value           nonuniform List<scalar> 5(3.54748e-06 6.74994e-07 2.98489e-08 4.39624e-10 3.59795e-12);
    }
    frontAndBack
    {
        type            empty;
    }
    procBoundary3to1
    {
        type            processor;
        value           nonuniform List<scalar> 5(4.00979e-06 5.60807e-07 2.25072e-08 3.13303e-10 2.60373e-12);
    }
    procBoundary3to2
    {
        type            processor;
        value           nonuniform List<scalar> 5(7.32166e-07 7.20002e-07 7.06707e-07 6.7956e-07 6.36567e-07);
    }
}


// ************************************************************************* //
