/*--------------------------------*- C++ -*----------------------------------*\
  =========                 |
  \\      /  F ield         | OpenFOAM: The Open Source CFD Toolbox
   \\    /   O peration     | Website:  https://openfoam.org
    \\  /    A nd           | Version:  8
     \\/     M anipulation  |
\*---------------------------------------------------------------------------*/
FoamFile
{
    version     2.0;
    format      ascii;
    class       volScalarField;
    location    "0.15";
    object      H2CN;
}
// * * * * * * * * * * * * * * * * * * * * * * * * * * * * * * * * * * * * * //

dimensions      [0 0 0 0 0 0 0];

internalField   nonuniform List<scalar> 
25
(
6.55557e-12
6.45583e-13
7.61829e-14
2.34665e-13
3.03364e-14
6.43209e-12
6.39743e-13
8.50708e-14
2.41235e-13
3.03928e-14
6.593e-12
6.523e-13
6.65143e-14
2.52681e-13
3.07408e-14
5.94822e-12
6.14812e-13
6.51178e-14
2.69739e-13
3.15466e-14
5.65183e-12
6.01904e-13
6.83232e-14
2.99096e-13
3.32465e-14
)
;

boundaryField
{
    fuel
    {
        type            fixedValue;
        value           nonuniform List<scalar> 0();
    }
    air
    {
        type            fixedValue;
        value           uniform 0;
    }
    outlet
    {
        type            inletOutlet;
        inletValue      uniform 0;
        value           nonuniform List<scalar> 5(5.65183e-12 6.01904e-13 6.83232e-14 2.99096e-13 3.32465e-14);
    }
    frontAndBack
    {
        type            empty;
    }
    procBoundary3to1
    {
        type            processor;
        value           nonuniform List<scalar> 5(6.58816e-12 6.50229e-13 7.63761e-14 2.34702e-13 3.03457e-14);
    }
    procBoundary3to2
    {
        type            processor;
        value           nonuniform List<scalar> 5(3.36243e-12 3.31267e-12 3.26554e-12 3.08628e-12 2.90884e-12);
    }
}


// ************************************************************************* //
