/*--------------------------------*- C++ -*----------------------------------*\
  =========                 |
  \\      /  F ield         | OpenFOAM: The Open Source CFD Toolbox
   \\    /   O peration     | Website:  https://openfoam.org
    \\  /    A nd           | Version:  8
     \\/     M anipulation  |
\*---------------------------------------------------------------------------*/
FoamFile
{
    version     2.0;
    format      ascii;
    class       volScalarField;
    location    "0.15";
    object      H2O2;
}
// * * * * * * * * * * * * * * * * * * * * * * * * * * * * * * * * * * * * * //

dimensions      [0 0 0 0 0 0 0];

internalField   nonuniform List<scalar> 
25
(
1.13657e-06
4.71451e-06
2.16105e-05
4.6444e-06
5.09109e-07
1.19103e-06
4.94879e-06
2.25664e-05
4.90013e-06
5.2863e-07
1.325e-06
5.62615e-06
2.6083e-05
5.33678e-06
5.60932e-07
1.47749e-06
6.49975e-06
3.09212e-05
5.88677e-06
6.03032e-07
1.54774e-06
7.11028e-06
3.51117e-05
6.51651e-06
6.53222e-07
)
;

boundaryField
{
    fuel
    {
        type            fixedValue;
        value           nonuniform List<scalar> 0();
    }
    air
    {
        type            fixedValue;
        value           uniform 0;
    }
    outlet
    {
        type            inletOutlet;
        inletValue      uniform 0;
        value           nonuniform List<scalar> 5(1.54774e-06 7.11028e-06 3.51117e-05 6.51651e-06 6.53222e-07);
    }
    frontAndBack
    {
        type            empty;
    }
    procBoundary3to1
    {
        type            processor;
        value           nonuniform List<scalar> 5(1.13683e-06 4.71487e-06 2.16114e-05 4.64449e-06 5.0909e-07);
    }
    procBoundary3to2
    {
        type            processor;
        value           nonuniform List<scalar> 5(3.11976e-07 3.20915e-07 3.40322e-07 3.52863e-07 3.62255e-07);
    }
}


// ************************************************************************* //
