/*--------------------------------*- C++ -*----------------------------------*\
  =========                 |
  \\      /  F ield         | OpenFOAM: The Open Source CFD Toolbox
   \\    /   O peration     | Website:  https://openfoam.org
    \\  /    A nd           | Version:  8
     \\/     M anipulation  |
\*---------------------------------------------------------------------------*/
FoamFile
{
    version     2.0;
    format      ascii;
    class       volScalarField;
    location    "0.15";
    object      HCCOH;
}
// * * * * * * * * * * * * * * * * * * * * * * * * * * * * * * * * * * * * * //

dimensions      [0 0 0 0 0 0 0];

internalField   nonuniform List<scalar> 
25
(
1.11136e-05
1.13244e-06
3.05859e-07
4.68862e-08
4.07806e-09
1.11786e-05
1.14326e-06
3.09845e-07
4.79601e-08
4.14681e-09
1.12561e-05
1.16582e-06
3.19332e-07
4.94317e-08
4.25273e-09
1.13385e-05
1.19984e-06
3.31454e-07
5.09783e-08
4.36544e-09
1.13561e-05
1.23627e-06
3.45865e-07
5.33022e-08
4.51443e-09
)
;

boundaryField
{
    fuel
    {
        type            fixedValue;
        value           nonuniform List<scalar> 0();
    }
    air
    {
        type            fixedValue;
        value           uniform 0;
    }
    outlet
    {
        type            inletOutlet;
        inletValue      uniform 0;
        value           nonuniform List<scalar> 5(1.13561e-05 1.23627e-06 3.45865e-07 5.33022e-08 4.51443e-09);
    }
    frontAndBack
    {
        type            empty;
    }
    procBoundary3to1
    {
        type            processor;
        value           nonuniform List<scalar> 5(1.11113e-05 1.1321e-06 3.0588e-07 4.68916e-08 4.07838e-09);
    }
    procBoundary3to2
    {
        type            processor;
        value           nonuniform List<scalar> 5(7.2958e-06 7.29111e-06 7.24948e-06 7.03778e-06 6.91415e-06);
    }
}


// ************************************************************************* //
