/*--------------------------------*- C++ -*----------------------------------*\
  =========                 |
  \\      /  F ield         | OpenFOAM: The Open Source CFD Toolbox
   \\    /   O peration     | Website:  https://openfoam.org
    \\  /    A nd           | Version:  8
     \\/     M anipulation  |
\*---------------------------------------------------------------------------*/
FoamFile
{
    version     2.0;
    format      ascii;
    class       volScalarField;
    location    "0.15";
    object      HCN;
}
// * * * * * * * * * * * * * * * * * * * * * * * * * * * * * * * * * * * * * //

dimensions      [0 0 0 0 0 0 0];

internalField   nonuniform List<scalar> 
25
(
6.396e-06
6.48057e-07
1.68208e-07
2.57796e-08
2.56045e-09
6.19004e-06
6.31077e-07
1.6616e-07
2.59056e-08
2.56109e-09
5.79841e-06
6.01791e-07
1.63464e-07
2.58524e-08
2.55354e-09
5.26937e-06
5.64906e-07
1.59633e-07
2.55783e-08
2.53177e-09
4.81778e-06
5.37079e-07
1.57908e-07
2.5766e-08
2.5367e-09
)
;

boundaryField
{
    fuel
    {
        type            fixedValue;
        value           nonuniform List<scalar> 0();
    }
    air
    {
        type            fixedValue;
        value           uniform 0;
    }
    outlet
    {
        type            inletOutlet;
        inletValue      uniform 0;
        value           nonuniform List<scalar> 5(4.81778e-06 5.37079e-07 1.57908e-07 2.5766e-08 2.5367e-09);
    }
    frontAndBack
    {
        type            empty;
    }
    procBoundary3to1
    {
        type            processor;
        value           nonuniform List<scalar> 5(6.39745e-06 6.48274e-07 1.68218e-07 2.57807e-08 2.56071e-09);
    }
    procBoundary3to2
    {
        type            processor;
        value           nonuniform List<scalar> 5(5.25871e-06 5.14091e-06 4.92062e-06 4.63993e-06 4.40528e-06);
    }
}


// ************************************************************************* //
