/*--------------------------------*- C++ -*----------------------------------*\
  =========                 |
  \\      /  F ield         | OpenFOAM: The Open Source CFD Toolbox
   \\    /   O peration     | Website:  https://openfoam.org
    \\  /    A nd           | Version:  8
     \\/     M anipulation  |
\*---------------------------------------------------------------------------*/
FoamFile
{
    version     2.0;
    format      ascii;
    class       volScalarField;
    location    "0.15";
    object      HCNO;
}
// * * * * * * * * * * * * * * * * * * * * * * * * * * * * * * * * * * * * * //

dimensions      [0 0 0 0 0 0 0];

internalField   nonuniform List<scalar> 
25
(
3.24546e-08
3.64199e-09
1.66814e-09
5.96369e-10
1.0899e-10
3.30655e-08
3.82197e-09
1.71673e-09
6.12365e-10
1.09777e-10
3.77154e-08
4.19103e-09
1.86739e-09
6.34629e-10
1.10966e-10
4.42398e-08
4.9391e-09
2.08083e-09
6.61446e-10
1.12564e-10
5.26427e-08
5.75389e-09
2.33589e-09
7.01871e-10
1.15481e-10
)
;

boundaryField
{
    fuel
    {
        type            fixedValue;
        value           nonuniform List<scalar> 0();
    }
    air
    {
        type            fixedValue;
        value           uniform 0;
    }
    outlet
    {
        type            inletOutlet;
        inletValue      uniform 0;
        value           nonuniform List<scalar> 5(5.26427e-08 5.75389e-09 2.33589e-09 7.01871e-10 1.15481e-10);
    }
    frontAndBack
    {
        type            empty;
    }
    procBoundary3to1
    {
        type            processor;
        value           nonuniform List<scalar> 5(3.26046e-08 3.6635e-09 1.66847e-09 5.96342e-10 1.08991e-10);
    }
    procBoundary3to2
    {
        type            processor;
        value           nonuniform List<scalar> 5(4.92207e-08 5.03189e-08 5.33171e-08 5.77903e-08 6.25078e-08);
    }
}


// ************************************************************************* //
