/*--------------------------------*- C++ -*----------------------------------*\
  =========                 |
  \\      /  F ield         | OpenFOAM: The Open Source CFD Toolbox
   \\    /   O peration     | Website:  https://openfoam.org
    \\  /    A nd           | Version:  8
     \\/     M anipulation  |
\*---------------------------------------------------------------------------*/
FoamFile
{
    version     2.0;
    format      ascii;
    class       volScalarField;
    location    "0.15";
    object      N2;
}
// * * * * * * * * * * * * * * * * * * * * * * * * * * * * * * * * * * * * * //

dimensions      [0 0 0 0 0 0 0];

internalField   nonuniform List<scalar> 
25
(
0.708017
0.746731
0.76422
0.769414
0.769999
0.707793
0.746579
0.764144
0.769399
0.769998
0.707151
0.746122
0.763936
0.769371
0.769997
0.705989
0.745324
0.763639
0.769334
0.769995
0.704459
0.744315
0.763273
0.769283
0.769993
)
;

boundaryField
{
    fuel
    {
        type            fixedValue;
        value           nonuniform List<scalar> 0();
    }
    air
    {
        type            fixedValue;
        value           uniform 0.77;
    }
    outlet
    {
        type            inletOutlet;
        inletValue      uniform 1;
        value           nonuniform List<scalar> 5(0.704459 0.744315 0.763273 0.769283 0.769993);
    }
    frontAndBack
    {
        type            empty;
    }
    procBoundary3to1
    {
        type            processor;
        value           nonuniform List<scalar> 5(0.708016 0.74673 0.76422 0.769414 0.769999);
    }
    procBoundary3to2
    {
        type            processor;
        value           nonuniform List<scalar> 5(0.624404 0.624288 0.623838 0.62316 0.622755);
    }
}


// ************************************************************************* //
