/*--------------------------------*- C++ -*----------------------------------*\
  =========                 |
  \\      /  F ield         | OpenFOAM: The Open Source CFD Toolbox
   \\    /   O peration     | Website:  https://openfoam.org
    \\  /    A nd           | Version:  8
     \\/     M anipulation  |
\*---------------------------------------------------------------------------*/
FoamFile
{
    version     2.0;
    format      ascii;
    class       volScalarField;
    location    "0.15";
    object      N2O;
}
// * * * * * * * * * * * * * * * * * * * * * * * * * * * * * * * * * * * * * //

dimensions      [0 0 0 0 0 0 0];

internalField   nonuniform List<scalar> 
25
(
2.15718e-07
8.41287e-07
2.27298e-07
3.42581e-08
3.10876e-09
2.14456e-07
8.41382e-07
2.26141e-07
3.4526e-08
3.12529e-09
2.04901e-07
8.01677e-07
2.23344e-07
3.44868e-08
3.12633e-09
1.92044e-07
7.60272e-07
2.17055e-07
3.38607e-08
3.08662e-09
1.72294e-07
6.82678e-07
2.09379e-07
3.35459e-08
3.0601e-09
)
;

boundaryField
{
    fuel
    {
        type            fixedValue;
        value           nonuniform List<scalar> 0();
    }
    air
    {
        type            fixedValue;
        value           uniform 0;
    }
    outlet
    {
        type            inletOutlet;
        inletValue      uniform 0;
        value           nonuniform List<scalar> 5(1.72294e-07 6.82678e-07 2.09379e-07 3.35459e-08 3.0601e-09);
    }
    frontAndBack
    {
        type            empty;
    }
    procBoundary3to1
    {
        type            processor;
        value           nonuniform List<scalar> 5(2.1573e-07 8.41274e-07 2.27293e-07 3.42574e-08 3.10875e-09);
    }
    procBoundary3to2
    {
        type            processor;
        value           nonuniform List<scalar> 5(1.81353e-07 1.79196e-07 1.73996e-07 1.66372e-07 1.57915e-07);
    }
}


// ************************************************************************* //
