/*--------------------------------*- C++ -*----------------------------------*\
  =========                 |
  \\      /  F ield         | OpenFOAM: The Open Source CFD Toolbox
   \\    /   O peration     | Website:  https://openfoam.org
    \\  /    A nd           | Version:  8
     \\/     M anipulation  |
\*---------------------------------------------------------------------------*/
FoamFile
{
    version     2.0;
    format      ascii;
    class       volScalarField;
    location    "0.15";
    object      NH2;
}
// * * * * * * * * * * * * * * * * * * * * * * * * * * * * * * * * * * * * * //

dimensions      [0 0 0 0 0 0 0];

internalField   nonuniform List<scalar> 
25
(
1.18745e-08
1.36394e-09
1.06265e-09
1.93574e-10
1.95578e-11
1.16347e-08
1.35055e-09
1.07058e-09
1.97379e-10
1.96805e-11
1.14975e-08
1.33493e-09
1.00109e-09
1.97401e-10
1.97112e-11
1.11795e-08
1.32002e-09
9.67231e-10
1.9997e-10
1.9847e-11
1.04617e-08
1.27642e-09
9.086e-10
2.05841e-10
2.0197e-11
)
;

boundaryField
{
    fuel
    {
        type            fixedValue;
        value           nonuniform List<scalar> 0();
    }
    air
    {
        type            fixedValue;
        value           uniform 0;
    }
    outlet
    {
        type            inletOutlet;
        inletValue      uniform 0;
        value           nonuniform List<scalar> 5(1.04617e-08 1.27642e-09 9.086e-10 2.05841e-10 2.0197e-11);
    }
    frontAndBack
    {
        type            empty;
    }
    procBoundary3to1
    {
        type            processor;
        value           nonuniform List<scalar> 5(1.18961e-08 1.36698e-09 1.06267e-09 1.93576e-10 1.95587e-11);
    }
    procBoundary3to2
    {
        type            processor;
        value           nonuniform List<scalar> 5(2.16134e-09 2.12018e-09 2.07791e-09 2.00003e-09 1.87387e-09);
    }
}


// ************************************************************************* //
