/*--------------------------------*- C++ -*----------------------------------*\
  =========                 |
  \\      /  F ield         | OpenFOAM: The Open Source CFD Toolbox
   \\    /   O peration     | Website:  https://openfoam.org
    \\  /    A nd           | Version:  8
     \\/     M anipulation  |
\*---------------------------------------------------------------------------*/
FoamFile
{
    version     2.0;
    format      ascii;
    class       volScalarField;
    location    "0.15";
    object      NO;
}
// * * * * * * * * * * * * * * * * * * * * * * * * * * * * * * * * * * * * * //

dimensions      [0 0 0 0 0 0 0];

internalField   nonuniform List<scalar> 
25
(
3.28956e-06
6.82594e-06
4.08689e-07
2.95636e-08
2.52252e-09
3.28549e-06
6.93616e-06
4.30759e-07
2.99711e-08
2.55002e-09
3.29366e-06
7.26842e-06
4.37911e-07
3.08096e-08
2.63124e-09
3.33817e-06
7.92532e-06
4.72604e-07
3.25503e-08
2.78899e-09
3.40726e-06
8.83482e-06
5.35181e-07
3.57266e-08
3.01165e-09
)
;

boundaryField
{
    fuel
    {
        type            fixedValue;
        value           nonuniform List<scalar> 0();
    }
    air
    {
        type            fixedValue;
        value           uniform 0;
    }
    outlet
    {
        type            inletOutlet;
        inletValue      uniform 0;
        value           nonuniform List<scalar> 5(3.40726e-06 8.83482e-06 5.35181e-07 3.57266e-08 3.01165e-09);
    }
    frontAndBack
    {
        type            empty;
    }
    procBoundary3to1
    {
        type            processor;
        value           nonuniform List<scalar> 5(3.29001e-06 6.8262e-06 4.08712e-07 2.95651e-08 2.52268e-09);
    }
    procBoundary3to2
    {
        type            processor;
        value           nonuniform List<scalar> 5(2.9243e-06 2.93029e-06 2.94811e-06 2.99202e-06 3.03645e-06);
    }
}


// ************************************************************************* //
