/*--------------------------------*- C++ -*----------------------------------*\
  =========                 |
  \\      /  F ield         | OpenFOAM: The Open Source CFD Toolbox
   \\    /   O peration     | Website:  https://openfoam.org
    \\  /    A nd           | Version:  8
     \\/     M anipulation  |
\*---------------------------------------------------------------------------*/
FoamFile
{
    version     2.0;
    format      ascii;
    class       volScalarField;
    location    "0.2";
    object      C2H3;
}
// * * * * * * * * * * * * * * * * * * * * * * * * * * * * * * * * * * * * * //

dimensions      [0 0 0 0 0 0 0];

internalField   nonuniform List<scalar> 
25
(
1.14985e-13
8.5906e-12
4.30828e-10
9.90565e-09
8.55832e-08
9.57978e-14
7.07624e-12
3.50584e-10
7.82131e-09
6.83416e-08
8.47551e-14
6.2125e-12
3.04745e-10
6.64158e-09
5.77512e-08
7.85759e-14
5.74861e-12
2.81929e-10
6.09152e-09
5.27172e-08
7.63308e-14
5.5732e-12
2.7255e-10
5.85886e-09
5.0793e-08
)
;

boundaryField
{
    fuel
    {
        type            fixedValue;
        value           uniform 0;
    }
    air
    {
        type            fixedValue;
        value           nonuniform List<scalar> 0();
    }
    outlet
    {
        type            inletOutlet;
        inletValue      uniform 0;
        value           nonuniform List<scalar> 5(1.14985e-13 8.5906e-12 4.30828e-10 9.90565e-09 8.55832e-08);
    }
    frontAndBack
    {
        type            empty;
    }
    procBoundary0to1
    {
        type            processor;
        value           nonuniform List<scalar> 5(4.65893e-07 3.73112e-07 3.06402e-07 2.75874e-07 2.65276e-07);
    }
    procBoundary0to2
    {
        type            processor;
        value           nonuniform List<scalar> 5(7.63317e-14 5.57322e-12 2.72552e-10 5.85898e-09 5.07948e-08);
    }
}


// ************************************************************************* //
