/*--------------------------------*- C++ -*----------------------------------*\
  =========                 |
  \\      /  F ield         | OpenFOAM: The Open Source CFD Toolbox
   \\    /   O peration     | Website:  https://openfoam.org
    \\  /    A nd           | Version:  8
     \\/     M anipulation  |
\*---------------------------------------------------------------------------*/
FoamFile
{
    version     2.0;
    format      ascii;
    class       volScalarField;
    location    "0.2";
    object      C3H7;
}
// * * * * * * * * * * * * * * * * * * * * * * * * * * * * * * * * * * * * * //

dimensions      [0 0 0 0 0 0 0];

internalField   nonuniform List<scalar> 
25
(
3.67115e-11
2.85725e-10
1.85133e-09
3.46214e-10
8.30146e-11
3.55626e-11
2.72901e-10
1.72407e-09
3.63955e-10
6.01898e-11
3.46593e-11
2.6376e-10
1.64119e-09
3.64159e-10
5.89055e-11
3.37728e-11
2.54619e-10
1.56712e-09
3.6298e-10
5.86809e-11
3.34866e-11
2.51936e-10
1.54425e-09
3.63402e-10
5.85826e-11
)
;

boundaryField
{
    fuel
    {
        type            fixedValue;
        value           uniform 0;
    }
    air
    {
        type            fixedValue;
        value           nonuniform List<scalar> 0();
    }
    outlet
    {
        type            inletOutlet;
        inletValue      uniform 0;
        value           nonuniform List<scalar> 5(3.67115e-11 2.85725e-10 1.85133e-09 3.46214e-10 8.30146e-11);
    }
    frontAndBack
    {
        type            empty;
    }
    procBoundary0to1
    {
        type            processor;
        value           nonuniform List<scalar> 5(6.92015e-11 4.54176e-11 3.24801e-11 2.78761e-11 2.65171e-11);
    }
    procBoundary0to2
    {
        type            processor;
        value           nonuniform List<scalar> 5(3.34673e-11 2.51837e-10 1.54389e-09 3.6337e-10 5.85785e-11);
    }
}


// ************************************************************************* //
