/*--------------------------------*- C++ -*----------------------------------*\
  =========                 |
  \\      /  F ield         | OpenFOAM: The Open Source CFD Toolbox
   \\    /   O peration     | Website:  https://openfoam.org
    \\  /    A nd           | Version:  8
     \\/     M anipulation  |
\*---------------------------------------------------------------------------*/
FoamFile
{
    version     2.0;
    format      ascii;
    class       volScalarField;
    location    "0.2";
    object      CH;
}
// * * * * * * * * * * * * * * * * * * * * * * * * * * * * * * * * * * * * * //

dimensions      [0 0 0 0 0 0 0];

internalField   nonuniform List<scalar> 
25
(
2.8584e-16
2.17647e-14
1.09523e-12
2.70474e-11
2.3429e-10
2.8255e-16
2.15081e-14
1.08575e-12
2.70791e-11
2.48705e-10
2.86899e-16
2.18128e-14
1.10146e-12
2.7594e-11
2.57617e-10
2.89534e-16
2.20532e-14
1.11864e-12
2.82174e-11
2.64852e-10
2.9213e-16
2.22277e-14
1.12646e-12
2.84348e-11
2.67997e-10
)
;

boundaryField
{
    fuel
    {
        type            fixedValue;
        value           uniform 0;
    }
    air
    {
        type            fixedValue;
        value           nonuniform List<scalar> 0();
    }
    outlet
    {
        type            inletOutlet;
        inletValue      uniform 0;
        value           nonuniform List<scalar> 5(2.8584e-16 2.17647e-14 1.09523e-12 2.70474e-11 2.3429e-10);
    }
    frontAndBack
    {
        type            empty;
    }
    procBoundary0to1
    {
        type            processor;
        value           nonuniform List<scalar> 5(1.26347e-09 1.33946e-09 1.37084e-09 1.40255e-09 1.41712e-09);
    }
    procBoundary0to2
    {
        type            processor;
        value           nonuniform List<scalar> 5(2.92122e-16 2.22272e-14 1.12644e-12 2.84343e-11 2.67994e-10);
    }
}


// ************************************************************************* //
