/*--------------------------------*- C++ -*----------------------------------*\
  =========                 |
  \\      /  F ield         | OpenFOAM: The Open Source CFD Toolbox
   \\    /   O peration     | Website:  https://openfoam.org
    \\  /    A nd           | Version:  8
     \\/     M anipulation  |
\*---------------------------------------------------------------------------*/
FoamFile
{
    version     2.0;
    format      ascii;
    class       volScalarField;
    location    "0.2";
    object      CH2(S);
}
// * * * * * * * * * * * * * * * * * * * * * * * * * * * * * * * * * * * * * //

dimensions      [0 0 0 0 0 0 0];

internalField   nonuniform List<scalar> 
25
(
2.45513e-15
1.87421e-13
9.48884e-12
2.36724e-10
2.08161e-09
2.31432e-15
1.76316e-13
8.92246e-12
2.23359e-10
2.05954e-09
2.274e-15
1.72921e-13
8.73823e-12
2.1914e-10
2.04751e-09
2.25406e-15
1.71678e-13
8.70861e-12
2.19669e-10
2.06113e-09
2.25657e-15
1.7168e-13
8.69928e-12
2.19535e-10
2.06798e-09
)
;

boundaryField
{
    fuel
    {
        type            fixedValue;
        value           uniform 0;
    }
    air
    {
        type            fixedValue;
        value           nonuniform List<scalar> 0();
    }
    outlet
    {
        type            inletOutlet;
        inletValue      uniform 0;
        value           nonuniform List<scalar> 5(2.45513e-15 1.87421e-13 9.48884e-12 2.36724e-10 2.08161e-09);
    }
    frontAndBack
    {
        type            empty;
    }
    procBoundary0to1
    {
        type            processor;
        value           nonuniform List<scalar> 5(1.14567e-08 1.1126e-08 1.08962e-08 1.09059e-08 1.09258e-08);
    }
    procBoundary0to2
    {
        type            processor;
        value           nonuniform List<scalar> 5(2.25653e-15 1.71677e-13 8.69917e-12 2.19533e-10 2.06798e-09);
    }
}


// ************************************************************************* //
