/*--------------------------------*- C++ -*----------------------------------*\
  =========                 |
  \\      /  F ield         | OpenFOAM: The Open Source CFD Toolbox
   \\    /   O peration     | Website:  https://openfoam.org
    \\  /    A nd           | Version:  8
     \\/     M anipulation  |
\*---------------------------------------------------------------------------*/
FoamFile
{
    version     2.0;
    format      ascii;
    class       volScalarField;
    location    "0.2";
    object      CH2O;
}
// * * * * * * * * * * * * * * * * * * * * * * * * * * * * * * * * * * * * * //

dimensions      [0 0 0 0 0 0 0];

internalField   nonuniform List<scalar> 
25
(
4.27279e-07
3.50858e-06
1.60665e-05
3.8979e-05
4.16438e-05
4.22373e-07
3.45885e-06
1.56758e-05
3.74118e-05
3.62711e-05
4.19985e-07
3.44501e-06
1.55577e-05
3.71401e-05
3.66009e-05
4.16273e-07
3.41341e-06
1.54552e-05
3.71791e-05
3.73099e-05
4.16694e-07
3.42117e-06
1.54649e-05
3.72346e-05
3.76707e-05
)
;

boundaryField
{
    fuel
    {
        type            fixedValue;
        value           uniform 0;
    }
    air
    {
        type            fixedValue;
        value           nonuniform List<scalar> 0();
    }
    outlet
    {
        type            inletOutlet;
        inletValue      uniform 0;
        value           nonuniform List<scalar> 5(4.27279e-07 3.50858e-06 1.60665e-05 3.8979e-05 4.16438e-05);
    }
    frontAndBack
    {
        type            empty;
    }
    procBoundary0to1
    {
        type            processor;
        value           nonuniform List<scalar> 5(1.51443e-05 1.32414e-05 1.22886e-05 1.19774e-05 1.18879e-05);
    }
    procBoundary0to2
    {
        type            processor;
        value           nonuniform List<scalar> 5(4.16942e-07 3.42246e-06 1.5467e-05 3.72354e-05 3.76704e-05);
    }
}


// ************************************************************************* //
