/*--------------------------------*- C++ -*----------------------------------*\
  =========                 |
  \\      /  F ield         | OpenFOAM: The Open Source CFD Toolbox
   \\    /   O peration     | Website:  https://openfoam.org
    \\  /    A nd           | Version:  8
     \\/     M anipulation  |
\*---------------------------------------------------------------------------*/
FoamFile
{
    version     2.0;
    format      ascii;
    class       volScalarField;
    location    "0.2";
    object      CH3;
}
// * * * * * * * * * * * * * * * * * * * * * * * * * * * * * * * * * * * * * //

dimensions      [0 0 0 0 0 0 0];

internalField   nonuniform List<scalar> 
25
(
6.18296e-09
5.96554e-08
6.31746e-07
7.41238e-06
4.35274e-05
6.05879e-09
5.80028e-08
6.04581e-07
7.06393e-06
4.3747e-05
5.9867e-09
5.71105e-08
5.87206e-07
6.76503e-06
4.18238e-05
5.91662e-09
5.63289e-08
5.77107e-07
6.63134e-06
4.08406e-05
5.90368e-09
5.61815e-08
5.73314e-07
6.5625e-06
4.04372e-05
)
;

boundaryField
{
    fuel
    {
        type            fixedValue;
        value           uniform 0;
    }
    air
    {
        type            fixedValue;
        value           nonuniform List<scalar> 0();
    }
    outlet
    {
        type            inletOutlet;
        inletValue      uniform 0;
        value           nonuniform List<scalar> 5(6.18296e-09 5.96554e-08 6.31746e-07 7.41238e-06 4.35274e-05);
    }
    frontAndBack
    {
        type            empty;
    }
    procBoundary0to1
    {
        type            processor;
        value           nonuniform List<scalar> 5(0.000159706 0.000140998 0.000127668 0.000121587 0.000119435);
    }
    procBoundary0to2
    {
        type            processor;
        value           nonuniform List<scalar> 5(5.90361e-09 5.61809e-08 5.7331e-07 6.56249e-06 4.04373e-05);
    }
}


// ************************************************************************* //
