/*--------------------------------*- C++ -*----------------------------------*\
  =========                 |
  \\      /  F ield         | OpenFOAM: The Open Source CFD Toolbox
   \\    /   O peration     | Website:  https://openfoam.org
    \\  /    A nd           | Version:  8
     \\/     M anipulation  |
\*---------------------------------------------------------------------------*/
FoamFile
{
    version     2.0;
    format      ascii;
    class       volScalarField;
    location    "0.2";
    object      CH3O;
}
// * * * * * * * * * * * * * * * * * * * * * * * * * * * * * * * * * * * * * //

dimensions      [0 0 0 0 0 0 0];

internalField   nonuniform List<scalar> 
25
(
5.43865e-09
4.36304e-08
6.26898e-08
5.68265e-09
1.68178e-09
5.43073e-09
4.35485e-08
6.4302e-08
6.1253e-09
1.96923e-09
5.45909e-09
4.386e-08
6.55254e-08
6.29246e-09
1.97947e-09
5.46177e-09
4.3942e-08
6.74582e-08
6.5032e-09
1.9951e-09
5.48512e-09
4.41678e-08
6.78775e-08
6.58306e-09
2.0029e-09
)
;

boundaryField
{
    fuel
    {
        type            fixedValue;
        value           uniform 0;
    }
    air
    {
        type            fixedValue;
        value           nonuniform List<scalar> 0();
    }
    outlet
    {
        type            inletOutlet;
        inletValue      uniform 0;
        value           nonuniform List<scalar> 5(5.43865e-09 4.36304e-08 6.26898e-08 5.68265e-09 1.68178e-09);
    }
    frontAndBack
    {
        type            empty;
    }
    procBoundary0to1
    {
        type            processor;
        value           nonuniform List<scalar> 5(1.97665e-09 1.61393e-09 1.3579e-09 1.25002e-09 1.2186e-09);
    }
    procBoundary0to2
    {
        type            processor;
        value           nonuniform List<scalar> 5(5.48489e-09 4.41665e-08 6.78773e-08 6.58311e-09 2.00311e-09);
    }
}


// ************************************************************************* //
