/*--------------------------------*- C++ -*----------------------------------*\
  =========                 |
  \\      /  F ield         | OpenFOAM: The Open Source CFD Toolbox
   \\    /   O peration     | Website:  https://openfoam.org
    \\  /    A nd           | Version:  8
     \\/     M anipulation  |
\*---------------------------------------------------------------------------*/
FoamFile
{
    version     2.0;
    format      ascii;
    class       volScalarField;
    location    "0.2";
    object      CO;
}
// * * * * * * * * * * * * * * * * * * * * * * * * * * * * * * * * * * * * * //

dimensions      [0 0 0 0 0 0 0];

internalField   nonuniform List<scalar> 
25
(
0.000287259
0.00254547
0.0125309
0.0332792
0.0465327
0.000285916
0.00252764
0.0123637
0.0328577
0.0466899
0.000286144
0.00253059
0.0123266
0.0327605
0.0469197
0.000284672
0.00251372
0.0122556
0.0327157
0.0470916
0.000285478
0.00252166
0.0122605
0.0326895
0.0471739
)
;

boundaryField
{
    fuel
    {
        type            fixedValue;
        value           uniform 0;
    }
    air
    {
        type            fixedValue;
        value           nonuniform List<scalar> 0();
    }
    outlet
    {
        type            inletOutlet;
        inletValue      uniform 0;
        value           nonuniform List<scalar> 5(0.000287259 0.00254547 0.0125309 0.0332792 0.0465327);
    }
    frontAndBack
    {
        type            empty;
    }
    procBoundary0to1
    {
        type            processor;
        value           nonuniform List<scalar> 5(0.0528906 0.0532051 0.0536117 0.0538895 0.0540189);
    }
    procBoundary0to2
    {
        type            processor;
        value           nonuniform List<scalar> 5(0.000285478 0.00252166 0.0122604 0.0326894 0.0471738);
    }
}


// ************************************************************************* //
