/*--------------------------------*- C++ -*----------------------------------*\
  =========                 |
  \\      /  F ield         | OpenFOAM: The Open Source CFD Toolbox
   \\    /   O peration     | Website:  https://openfoam.org
    \\  /    A nd           | Version:  8
     \\/     M anipulation  |
\*---------------------------------------------------------------------------*/
FoamFile
{
    version     2.0;
    format      ascii;
    class       volScalarField;
    location    "0.2";
    object      H;
}
// * * * * * * * * * * * * * * * * * * * * * * * * * * * * * * * * * * * * * //

dimensions      [0 0 0 0 0 0 0];

internalField   nonuniform List<scalar> 
25
(
8.72704e-13
6.50851e-11
3.24027e-09
7.88229e-08
6.79976e-07
8.57642e-13
6.38944e-11
3.1848e-09
7.79549e-08
7.08558e-07
8.78125e-13
6.54313e-11
3.2654e-09
8.04155e-08
7.452e-07
8.93256e-13
6.67399e-11
3.34887e-09
8.31322e-08
7.75705e-07
9.04723e-13
6.75594e-11
3.38751e-09
8.41756e-08
7.8893e-07
)
;

boundaryField
{
    fuel
    {
        type            fixedValue;
        value           uniform 0;
    }
    air
    {
        type            fixedValue;
        value           nonuniform List<scalar> 0();
    }
    outlet
    {
        type            inletOutlet;
        inletValue      uniform 0;
        value           nonuniform List<scalar> 5(8.72704e-13 6.50851e-11 3.24027e-09 7.88229e-08 6.79976e-07);
    }
    frontAndBack
    {
        type            empty;
    }
    procBoundary0to1
    {
        type            processor;
        value           nonuniform List<scalar> 5(3.62933e-06 3.72591e-06 3.89436e-06 4.0436e-06 4.1082e-06);
    }
    procBoundary0to2
    {
        type            processor;
        value           nonuniform List<scalar> 5(9.04704e-13 6.75577e-11 3.38743e-09 8.41738e-08 7.88914e-07);
    }
}


// ************************************************************************* //
