/*--------------------------------*- C++ -*----------------------------------*\
  =========                 |
  \\      /  F ield         | OpenFOAM: The Open Source CFD Toolbox
   \\    /   O peration     | Website:  https://openfoam.org
    \\  /    A nd           | Version:  8
     \\/     M anipulation  |
\*---------------------------------------------------------------------------*/
FoamFile
{
    version     2.0;
    format      ascii;
    class       volScalarField;
    location    "0.2";
    object      H2;
}
// * * * * * * * * * * * * * * * * * * * * * * * * * * * * * * * * * * * * * //

dimensions      [0 0 0 0 0 0 0];

internalField   nonuniform List<scalar> 
25
(
2.43447e-05
0.00021052
0.00101485
0.00267792
0.00377756
2.4157e-05
0.00020827
0.000995644
0.00261812
0.00372617
2.40952e-05
0.0002077
0.00098682
0.00258396
0.0036806
2.39099e-05
0.000205693
0.00097681
0.00256162
0.00365143
2.39394e-05
0.000205971
0.000974754
0.00254988
0.00363807
)
;

boundaryField
{
    fuel
    {
        type            fixedValue;
        value           uniform 0;
    }
    air
    {
        type            fixedValue;
        value           nonuniform List<scalar> 0();
    }
    outlet
    {
        type            inletOutlet;
        inletValue      uniform 0;
        value           nonuniform List<scalar> 5(2.43447e-05 0.00021052 0.00101485 0.00267792 0.00377756);
    }
    frontAndBack
    {
        type            empty;
    }
    procBoundary0to1
    {
        type            processor;
        value           nonuniform List<scalar> 5(0.00438108 0.00426705 0.00418017 0.00413063 0.00411269);
    }
    procBoundary0to2
    {
        type            processor;
        value           nonuniform List<scalar> 5(2.39391e-05 0.000205969 0.000974747 0.00254987 0.00363808);
    }
}


// ************************************************************************* //
