/*--------------------------------*- C++ -*----------------------------------*\
  =========                 |
  \\      /  F ield         | OpenFOAM: The Open Source CFD Toolbox
   \\    /   O peration     | Website:  https://openfoam.org
    \\  /    A nd           | Version:  8
     \\/     M anipulation  |
\*---------------------------------------------------------------------------*/
FoamFile
{
    version     2.0;
    format      ascii;
    class       volScalarField;
    location    "0.2";
    object      H2CN;
}
// * * * * * * * * * * * * * * * * * * * * * * * * * * * * * * * * * * * * * //

dimensions      [0 0 0 0 0 0 0];

internalField   nonuniform List<scalar> 
25
(
1.05265e-11
9.08232e-11
3.80632e-10
2.65626e-11
3.50473e-12
1.06855e-11
9.2461e-11
3.92448e-10
2.88873e-11
3.74599e-12
1.09059e-11
9.47835e-11
4.05554e-10
3.00518e-11
3.90344e-12
1.10313e-11
9.61009e-11
4.17383e-10
3.11984e-11
4.04317e-12
1.11563e-11
9.73658e-11
4.23249e-10
3.17989e-11
4.11621e-12
)
;

boundaryField
{
    fuel
    {
        type            fixedValue;
        value           uniform 0;
    }
    air
    {
        type            fixedValue;
        value           nonuniform List<scalar> 0();
    }
    outlet
    {
        type            inletOutlet;
        inletValue      uniform 0;
        value           nonuniform List<scalar> 5(1.05265e-11 9.08232e-11 3.80632e-10 2.65626e-11 3.50473e-12);
    }
    frontAndBack
    {
        type            empty;
    }
    procBoundary0to1
    {
        type            processor;
        value           nonuniform List<scalar> 5(5.4956e-12 5.86708e-12 6.15148e-12 6.41467e-12 6.54375e-12);
    }
    procBoundary0to2
    {
        type            processor;
        value           nonuniform List<scalar> 5(1.11566e-11 9.73693e-11 4.23263e-10 3.17999e-11 4.11623e-12);
    }
}


// ************************************************************************* //
