/*--------------------------------*- C++ -*----------------------------------*\
  =========                 |
  \\      /  F ield         | OpenFOAM: The Open Source CFD Toolbox
   \\    /   O peration     | Website:  https://openfoam.org
    \\  /    A nd           | Version:  8
     \\/     M anipulation  |
\*---------------------------------------------------------------------------*/
FoamFile
{
    version     2.0;
    format      ascii;
    class       volScalarField;
    location    "0.2";
    object      HO2;
}
// * * * * * * * * * * * * * * * * * * * * * * * * * * * * * * * * * * * * * //

dimensions      [0 0 0 0 0 0 0];

internalField   nonuniform List<scalar> 
25
(
6.18154e-09
5.72575e-08
3.7583e-07
5.81287e-07
6.81185e-07
6.22701e-09
5.76453e-08
3.76772e-07
5.84491e-07
7.89218e-07
6.32208e-09
5.86885e-08
3.82565e-07
5.83679e-07
8.03919e-07
6.366e-09
5.91474e-08
3.87217e-07
5.84409e-07
8.09415e-07
6.41977e-09
5.97063e-08
3.89952e-07
5.84397e-07
8.1096e-07
)
;

boundaryField
{
    fuel
    {
        type            fixedValue;
        value           uniform 0;
    }
    air
    {
        type            fixedValue;
        value           nonuniform List<scalar> 0();
    }
    outlet
    {
        type            inletOutlet;
        inletValue      uniform 0;
        value           nonuniform List<scalar> 5(6.18154e-09 5.72575e-08 3.7583e-07 5.81287e-07 6.81185e-07);
    }
    frontAndBack
    {
        type            empty;
    }
    procBoundary0to1
    {
        type            processor;
        value           nonuniform List<scalar> 5(1.089e-06 1.07291e-06 1.02596e-06 9.89226e-07 9.71623e-07);
    }
    procBoundary0to2
    {
        type            processor;
        value           nonuniform List<scalar> 5(6.41961e-09 5.97049e-08 3.89945e-07 5.84398e-07 8.1095e-07);
    }
}


// ************************************************************************* //
