/*--------------------------------*- C++ -*----------------------------------*\
  =========                 |
  \\      /  F ield         | OpenFOAM: The Open Source CFD Toolbox
   \\    /   O peration     | Website:  https://openfoam.org
    \\  /    A nd           | Version:  8
     \\/     M anipulation  |
\*---------------------------------------------------------------------------*/
FoamFile
{
    version     2.0;
    format      ascii;
    class       volScalarField;
    location    "0.2";
    object      HOCN;
}
// * * * * * * * * * * * * * * * * * * * * * * * * * * * * * * * * * * * * * //

dimensions      [0 0 0 0 0 0 0];

internalField   nonuniform List<scalar> 
25
(
1.23727e-11
1.1292e-10
5.70636e-10
1.495e-09
1.95349e-09
1.25861e-11
1.15083e-10
5.84809e-10
1.57661e-09
2.21669e-09
1.2883e-11
1.1827e-10
6.05491e-10
1.67436e-09
2.47203e-09
1.30454e-11
1.19892e-10
6.19445e-10
1.75051e-09
2.66667e-09
1.32232e-11
1.21751e-10
6.29968e-10
1.79235e-09
2.76629e-09
)
;

boundaryField
{
    fuel
    {
        type            fixedValue;
        value           uniform 0;
    }
    air
    {
        type            fixedValue;
        value           nonuniform List<scalar> 0();
    }
    outlet
    {
        type            inletOutlet;
        inletValue      uniform 0;
        value           nonuniform List<scalar> 5(1.23727e-11 1.1292e-10 5.70636e-10 1.495e-09 1.95349e-09);
    }
    frontAndBack
    {
        type            empty;
    }
    procBoundary0to1
    {
        type            processor;
        value           nonuniform List<scalar> 5(2.63031e-09 3.07869e-09 3.56905e-09 3.93986e-09 4.11196e-09);
    }
    procBoundary0to2
    {
        type            processor;
        value           nonuniform List<scalar> 5(1.3222e-11 1.21745e-10 6.29963e-10 1.79233e-09 2.76619e-09);
    }
}


// ************************************************************************* //
