/*--------------------------------*- C++ -*----------------------------------*\
  =========                 |
  \\      /  F ield         | OpenFOAM: The Open Source CFD Toolbox
   \\    /   O peration     | Website:  https://openfoam.org
    \\  /    A nd           | Version:  8
     \\/     M anipulation  |
\*---------------------------------------------------------------------------*/
FoamFile
{
    version     2.0;
    format      ascii;
    class       volScalarField;
    location    "0.2";
    object      N;
}
// * * * * * * * * * * * * * * * * * * * * * * * * * * * * * * * * * * * * * //

dimensions      [0 0 0 0 0 0 0];

internalField   nonuniform List<scalar> 
25
(
1.23713e-15
1.37624e-14
2.29398e-13
4.98013e-12
4.21773e-11
1.31415e-15
1.46895e-14
2.45733e-13
5.40204e-12
4.8899e-11
1.40981e-15
1.59162e-14
2.68852e-13
5.97944e-12
5.55018e-11
1.48097e-15
1.68793e-14
2.8789e-13
6.4655e-12
6.06322e-11
1.52151e-15
1.73817e-14
2.96467e-13
6.66838e-12
6.28276e-11
)
;

boundaryField
{
    fuel
    {
        type            fixedValue;
        value           uniform 0;
    }
    air
    {
        type            fixedValue;
        value           nonuniform List<scalar> 0();
    }
    outlet
    {
        type            inletOutlet;
        inletValue      uniform 0;
        value           nonuniform List<scalar> 5(1.23713e-15 1.37624e-14 2.29398e-13 4.98013e-12 4.21773e-11);
    }
    frontAndBack
    {
        type            empty;
    }
    procBoundary0to1
    {
        type            processor;
        value           nonuniform List<scalar> 5(2.20547e-10 2.4899e-10 2.82305e-10 3.08689e-10 3.20064e-10);
    }
    procBoundary0to2
    {
        type            processor;
        value           nonuniform List<scalar> 5(1.52148e-15 1.7381e-14 2.96454e-13 6.6681e-12 6.2825e-11);
    }
}


// ************************************************************************* //
