/*--------------------------------*- C++ -*----------------------------------*\
  =========                 |
  \\      /  F ield         | OpenFOAM: The Open Source CFD Toolbox
   \\    /   O peration     | Website:  https://openfoam.org
    \\  /    A nd           | Version:  8
     \\/     M anipulation  |
\*---------------------------------------------------------------------------*/
FoamFile
{
    version     2.0;
    format      ascii;
    class       volScalarField;
    location    "0.2";
    object      N2O;
}
// * * * * * * * * * * * * * * * * * * * * * * * * * * * * * * * * * * * * * //

dimensions      [0 0 0 0 0 0 0];

internalField   nonuniform List<scalar> 
25
(
1.21043e-09
1.03727e-08
4.93077e-08
1.26232e-07
1.68486e-07
1.21373e-09
1.03941e-08
4.93154e-08
1.27709e-07
1.76858e-07
1.22337e-09
1.04964e-08
4.9807e-08
1.3024e-07
1.84787e-07
1.22379e-09
1.04934e-08
4.99754e-08
1.32001e-07
1.89756e-07
1.23106e-09
1.05654e-08
5.02434e-08
1.32851e-07
1.91941e-07
)
;

boundaryField
{
    fuel
    {
        type            fixedValue;
        value           uniform 0;
    }
    air
    {
        type            fixedValue;
        value           nonuniform List<scalar> 0();
    }
    outlet
    {
        type            inletOutlet;
        inletValue      uniform 0;
        value           nonuniform List<scalar> 5(1.21043e-09 1.03727e-08 4.93077e-08 1.26232e-07 1.68486e-07);
    }
    frontAndBack
    {
        type            empty;
    }
    procBoundary0to1
    {
        type            processor;
        value           nonuniform List<scalar> 5(1.83356e-07 2.01899e-07 2.16866e-07 2.25008e-07 2.28004e-07);
    }
    procBoundary0to2
    {
        type            processor;
        value           nonuniform List<scalar> 5(1.23107e-09 1.05654e-08 5.02434e-08 1.3285e-07 1.91938e-07);
    }
}


// ************************************************************************* //
