/*--------------------------------*- C++ -*----------------------------------*\
  =========                 |
  \\      /  F ield         | OpenFOAM: The Open Source CFD Toolbox
   \\    /   O peration     | Website:  https://openfoam.org
    \\  /    A nd           | Version:  8
     \\/     M anipulation  |
\*---------------------------------------------------------------------------*/
FoamFile
{
    version     2.0;
    format      ascii;
    class       volScalarField;
    location    "0.2";
    object      NH2;
}
// * * * * * * * * * * * * * * * * * * * * * * * * * * * * * * * * * * * * * //

dimensions      [0 0 0 0 0 0 0];

internalField   nonuniform List<scalar> 
25
(
7.14486e-13
5.94818e-12
2.74251e-11
2.25075e-10
1.93942e-09
7.25008e-13
6.05621e-12
2.80615e-11
2.25181e-10
2.04367e-09
7.41259e-13
6.23573e-12
2.9246e-11
2.35466e-10
2.18008e-09
7.51597e-13
6.35572e-12
3.04398e-11
2.46289e-10
2.29776e-09
7.60388e-13
6.4484e-12
3.09745e-11
2.51046e-10
2.35328e-09
)
;

boundaryField
{
    fuel
    {
        type            fixedValue;
        value           uniform 0;
    }
    air
    {
        type            fixedValue;
        value           nonuniform List<scalar> 0();
    }
    outlet
    {
        type            inletOutlet;
        inletValue      uniform 0;
        value           nonuniform List<scalar> 5(7.14486e-13 5.94818e-12 2.74251e-11 2.25075e-10 1.93942e-09);
    }
    frontAndBack
    {
        type            empty;
    }
    procBoundary0to1
    {
        type            processor;
        value           nonuniform List<scalar> 5(1.03413e-08 1.07771e-08 1.14383e-08 1.20402e-08 1.23246e-08);
    }
    procBoundary0to2
    {
        type            processor;
        value           nonuniform List<scalar> 5(7.60399e-13 6.44838e-12 3.0974e-11 2.51038e-10 2.3532e-09);
    }
}


// ************************************************************************* //
