/*--------------------------------*- C++ -*----------------------------------*\
  =========                 |
  \\      /  F ield         | OpenFOAM: The Open Source CFD Toolbox
   \\    /   O peration     | Website:  https://openfoam.org
    \\  /    A nd           | Version:  8
     \\/     M anipulation  |
\*---------------------------------------------------------------------------*/
FoamFile
{
    version     2.0;
    format      ascii;
    class       volScalarField;
    location    "0.2";
    object      NH3;
}
// * * * * * * * * * * * * * * * * * * * * * * * * * * * * * * * * * * * * * //

dimensions      [0 0 0 0 0 0 0];

internalField   nonuniform List<scalar> 
25
(
1.62029e-08
1.32321e-07
6.02347e-07
1.5353e-06
2.1359e-06
1.60992e-08
1.31123e-07
5.92244e-07
1.5063e-06
2.11777e-06
1.60729e-08
1.30938e-07
5.88205e-07
1.49218e-06
2.10472e-06
1.5964e-08
1.29813e-07
5.83228e-07
1.48393e-06
2.09964e-06
1.59899e-08
1.30073e-07
5.82624e-07
1.48006e-06
2.09917e-06
)
;

boundaryField
{
    fuel
    {
        type            fixedValue;
        value           uniform 0;
    }
    air
    {
        type            fixedValue;
        value           nonuniform List<scalar> 0();
    }
    outlet
    {
        type            inletOutlet;
        inletValue      uniform 0;
        value           nonuniform List<scalar> 5(1.62029e-08 1.32321e-07 6.02347e-07 1.5353e-06 2.1359e-06);
    }
    frontAndBack
    {
        type            empty;
    }
    procBoundary0to1
    {
        type            processor;
        value           nonuniform List<scalar> 5(2.45038e-06 2.41009e-06 2.38355e-06 2.37728e-06 2.38034e-06);
    }
    procBoundary0to2
    {
        type            processor;
        value           nonuniform List<scalar> 5(1.59897e-08 1.30072e-07 5.82619e-07 1.48005e-06 2.09915e-06);
    }
}


// ************************************************************************* //
