/*--------------------------------*- C++ -*----------------------------------*\
  =========                 |
  \\      /  F ield         | OpenFOAM: The Open Source CFD Toolbox
   \\    /   O peration     | Website:  https://openfoam.org
    \\  /    A nd           | Version:  8
     \\/     M anipulation  |
\*---------------------------------------------------------------------------*/
FoamFile
{
    version     2.0;
    format      ascii;
    class       volScalarField;
    location    "0.2";
    object      OH;
}
// * * * * * * * * * * * * * * * * * * * * * * * * * * * * * * * * * * * * * //

dimensions      [0 0 0 0 0 0 0];

internalField   nonuniform List<scalar> 
25
(
2.09899e-11
1.59e-09
8.04405e-08
2.0163e-06
1.78565e-05
1.92566e-11
1.45424e-09
7.34763e-08
1.8465e-06
1.71247e-05
1.82891e-11
1.37697e-09
6.93559e-08
1.74211e-06
1.63203e-05
1.76153e-11
1.32713e-09
6.69999e-08
1.68897e-06
1.58396e-05
1.73809e-11
1.30755e-09
6.5907e-08
1.66118e-06
1.56301e-05
)
;

boundaryField
{
    fuel
    {
        type            fixedValue;
        value           uniform 0;
    }
    air
    {
        type            fixedValue;
        value           nonuniform List<scalar> 0();
    }
    outlet
    {
        type            inletOutlet;
        inletValue      uniform 0;
        value           nonuniform List<scalar> 5(2.09899e-11 1.59e-09 8.04405e-08 2.0163e-06 1.78565e-05);
    }
    frontAndBack
    {
        type            empty;
    }
    procBoundary0to1
    {
        type            processor;
        value           nonuniform List<scalar> 5(9.90481e-05 9.30369e-05 8.70021e-05 8.36264e-05 8.23615e-05);
    }
    procBoundary0to2
    {
        type            processor;
        value           nonuniform List<scalar> 5(1.73813e-11 1.30758e-09 6.59088e-08 1.66124e-06 1.56307e-05);
    }
}


// ************************************************************************* //
