/*--------------------------------*- C++ -*----------------------------------*\
  =========                 |
  \\      /  F ield         | OpenFOAM: The Open Source CFD Toolbox
   \\    /   O peration     | Website:  https://openfoam.org
    \\  /    A nd           | Version:  8
     \\/     M anipulation  |
\*---------------------------------------------------------------------------*/
FoamFile
{
    version     2.0;
    format      ascii;
    class       surfaceScalarField;
    location    "0.2";
    object      phi;
}
// * * * * * * * * * * * * * * * * * * * * * * * * * * * * * * * * * * * * * //

dimensions      [1 0 -1 0 0 0 0];

internalField   nonuniform List<scalar> 
40
(
2.26042e-06
-1.57778e-06
1.24083e-06
-3.70232e-06
1.72097e-07
-4.075e-06
-6.59246e-07
-3.37855e-06
-2.66344e-06
2.26582e-06
-1.20912e-06
1.31586e-06
-2.75009e-06
2.77856e-07
-3.03318e-06
-5.56942e-07
-2.5414e-06
-2.06199e-06
2.22103e-06
-7.9569e-07
1.29696e-06
-1.82382e-06
2.91199e-07
-2.02364e-06
-5.35102e-07
-1.71273e-06
-1.39449e-06
2.24719e-06
-4.08437e-07
1.33245e-06
-9.06929e-07
3.13534e-07
-1.001e-06
-5.37652e-07
-8.59179e-07
-7.02668e-07
2.226e-06
1.3212e-06
3.23935e-07
-5.32859e-07
)
;

boundaryField
{
    fuel
    {
        type            calculated;
        value           nonuniform List<scalar> 5(-2.63417e-06 -2.63417e-06 -2.63417e-06 -2.63417e-06 -2.63417e-06);
    }
    air
    {
        type            calculated;
        value           nonuniform List<scalar> 0();
    }
    outlet
    {
        type            calculated;
        value           nonuniform List<scalar> 5(1.95187e-06 4.72427e-06 5.14763e-06 4.21227e-06 3.10584e-06);
    }
    frontAndBack
    {
        type            empty;
        value           nonuniform List<scalar> 0();
    }
    procBoundary0to1
    {
        type            processor;
        value           nonuniform List<scalar> 5(-1.10018e-06 -1.15709e-06 -1.20138e-06 -1.22828e-06 -1.23433e-06);
    }
    procBoundary0to2
    {
        type            processor;
        value           nonuniform List<scalar> 5(1.31878e-12 6.07861e-12 6.47667e-12 -1.74268e-12 3.92965e-12);
    }
}


// ************************************************************************* //
