/*--------------------------------*- C++ -*----------------------------------*\
  =========                 |
  \\      /  F ield         | OpenFOAM: The Open Source CFD Toolbox
   \\    /   O peration     | Website:  https://openfoam.org
    \\  /    A nd           | Version:  8
     \\/     M anipulation  |
\*---------------------------------------------------------------------------*/
FoamFile
{
    version     2.0;
    format      ascii;
    class       volScalarField;
    location    "0.2";
    object      T;
}
// * * * * * * * * * * * * * * * * * * * * * * * * * * * * * * * * * * * * * //

dimensions      [0 0 0 1 0 0 0];

internalField   nonuniform List<scalar> 
25
(
298.344
338.395
507.819
908.469
1325.93
298.315
338.033
504.589
896.336
1325.38
298.313
338.028
503.541
891.692
1326.05
298.281
337.683
502.001
888.834
1326.55
298.293
337.795
501.897
887.237
1326.55
)
;

boundaryField
{
    fuel
    {
        type            fixedValue;
        value           uniform 293;
    }
    air
    {
        type            fixedValue;
        value           nonuniform List<scalar> 0();
    }
    outlet
    {
        type            inletOutlet;
        inletValue      uniform 293;
        value           nonuniform List<scalar> 5(298.342 338.371 507.727 908.3 1325.74);
    }
    frontAndBack
    {
        type            empty;
    }
    procBoundary0to1
    {
        type            processor;
        value           nonuniform List<scalar> 5(1678.03 1681.15 1683.87 1685.47 1686.17);
    }
    procBoundary0to2
    {
        type            processor;
        value           nonuniform List<scalar> 5(298.293 337.795 501.896 887.234 1326.54);
    }
}


// ************************************************************************* //
