/*--------------------------------*- C++ -*----------------------------------*\
  =========                 |
  \\      /  F ield         | OpenFOAM: The Open Source CFD Toolbox
   \\    /   O peration     | Website:  https://openfoam.org
    \\  /    A nd           | Version:  8
     \\/     M anipulation  |
\*---------------------------------------------------------------------------*/
FoamFile
{
    version     2.0;
    format      ascii;
    class       volScalarField;
    location    "0.1";
    object      C2H2;
}
// * * * * * * * * * * * * * * * * * * * * * * * * * * * * * * * * * * * * * //

dimensions      [0 0 0 0 0 0 0];

internalField   nonuniform List<scalar> 
25
(
4.35607e-05
0.000323144
0.00156212
0.0048188
0.00780905
4.17014e-05
0.000312775
0.00153545
0.00480059
0.00782522
3.91273e-05
0.000299524
0.00149865
0.00476781
0.00787049
3.55891e-05
0.000281141
0.00144829
0.0047364
0.0079372
3.27227e-05
0.000265049
0.00140957
0.00475165
0.00799445
)
;

boundaryField
{
    fuel
    {
        type            fixedValue;
        value           uniform 0;
    }
    air
    {
        type            fixedValue;
        value           nonuniform List<scalar> 0();
    }
    outlet
    {
        type            inletOutlet;
        inletValue      uniform 0;
        value           nonuniform List<scalar> 5(3.27227e-05 0.000265049 0.00140957 0.00475165 0.00799445);
    }
    frontAndBack
    {
        type            empty;
    }
    procBoundary2to0
    {
        type            processor;
        value           nonuniform List<scalar> 5(4.35608e-05 0.000323149 0.00156216 0.00481899 0.0078116);
    }
    procBoundary2to3
    {
        type            processor;
        value           nonuniform List<scalar> 5(0.00935987 0.00944273 0.00962665 0.00992395 0.0101879);
    }
}


// ************************************************************************* //
