/*--------------------------------*- C++ -*----------------------------------*\
  =========                 |
  \\      /  F ield         | OpenFOAM: The Open Source CFD Toolbox
   \\    /   O peration     | Website:  https://openfoam.org
    \\  /    A nd           | Version:  8
     \\/     M anipulation  |
\*---------------------------------------------------------------------------*/
FoamFile
{
    version     2.0;
    format      ascii;
    class       volScalarField;
    location    "0.1";
    object      CH;
}
// * * * * * * * * * * * * * * * * * * * * * * * * * * * * * * * * * * * * * //

dimensions      [0 0 0 0 0 0 0];

internalField   nonuniform List<scalar> 
25
(
2.43367e-16
1.81805e-14
9.00048e-13
2.33505e-11
2.38246e-10
2.40949e-16
1.80405e-14
8.96841e-13
2.33566e-11
2.38348e-10
2.33945e-16
1.75092e-14
8.70663e-13
2.26735e-11
2.31471e-10
2.21069e-16
1.65976e-14
8.2903e-13
2.16303e-11
2.17765e-10
2.1115e-16
1.58751e-14
7.95509e-13
2.07359e-11
1.98521e-10
)
;

boundaryField
{
    fuel
    {
        type            fixedValue;
        value           uniform 0;
    }
    air
    {
        type            fixedValue;
        value           nonuniform List<scalar> 0();
    }
    outlet
    {
        type            inletOutlet;
        inletValue      uniform 0;
        value           nonuniform List<scalar> 5(2.1115e-16 1.58751e-14 7.95509e-13 2.07359e-11 1.98521e-10);
    }
    frontAndBack
    {
        type            empty;
    }
    procBoundary2to0
    {
        type            processor;
        value           nonuniform List<scalar> 5(2.45964e-16 1.83804e-14 9.10343e-13 2.36368e-11 2.41558e-10);
    }
    procBoundary2to3
    {
        type            processor;
        value           nonuniform List<scalar> 5(1.33368e-09 1.34231e-09 1.31122e-09 1.24289e-09 1.12816e-09);
    }
}


// ************************************************************************* //
