/*--------------------------------*- C++ -*----------------------------------*\
  =========                 |
  \\      /  F ield         | OpenFOAM: The Open Source CFD Toolbox
   \\    /   O peration     | Website:  https://openfoam.org
    \\  /    A nd           | Version:  8
     \\/     M anipulation  |
\*---------------------------------------------------------------------------*/
FoamFile
{
    version     2.0;
    format      ascii;
    class       volScalarField;
    location    "0.1";
    object      CH2;
}
// * * * * * * * * * * * * * * * * * * * * * * * * * * * * * * * * * * * * * //

dimensions      [0 0 0 0 0 0 0];

internalField   nonuniform List<scalar> 
25
(
9.51387e-14
5.23816e-12
2.59379e-10
6.7293e-09
6.88391e-08
9.38747e-14
5.18159e-12
2.57299e-10
6.68412e-09
6.79868e-08
9.35513e-14
5.20677e-12
2.59215e-10
6.7603e-09
6.92092e-08
9.28095e-14
5.20181e-12
2.60768e-10
6.84045e-09
6.93822e-08
9.39834e-14
5.30111e-12
2.67637e-10
7.06264e-09
6.88819e-08
)
;

boundaryField
{
    fuel
    {
        type            fixedValue;
        value           uniform 0;
    }
    air
    {
        type            fixedValue;
        value           nonuniform List<scalar> 0();
    }
    outlet
    {
        type            inletOutlet;
        inletValue      uniform 0;
        value           nonuniform List<scalar> 5(9.39834e-14 5.30111e-12 2.67637e-10 7.06264e-09 6.88819e-08);
    }
    frontAndBack
    {
        type            empty;
    }
    procBoundary2to0
    {
        type            processor;
        value           nonuniform List<scalar> 5(9.3774e-14 5.1339e-12 2.5399e-10 6.57852e-09 6.70457e-08);
    }
    procBoundary2to3
    {
        type            processor;
        value           nonuniform List<scalar> 5(3.87316e-07 3.80462e-07 3.93184e-07 3.98914e-07 4.01243e-07);
    }
}


// ************************************************************************* //
