/*--------------------------------*- C++ -*----------------------------------*\
  =========                 |
  \\      /  F ield         | OpenFOAM: The Open Source CFD Toolbox
   \\    /   O peration     | Website:  https://openfoam.org
    \\  /    A nd           | Version:  8
     \\/     M anipulation  |
\*---------------------------------------------------------------------------*/
FoamFile
{
    version     2.0;
    format      ascii;
    class       volScalarField;
    location    "0.1";
    object      CH2O;
}
// * * * * * * * * * * * * * * * * * * * * * * * * * * * * * * * * * * * * * //

dimensions      [0 0 0 0 0 0 0];

internalField   nonuniform List<scalar> 
25
(
5.39171e-07
4.88784e-06
2.24484e-05
4.97665e-05
4.74387e-05
5.56886e-07
5.04281e-06
2.31559e-05
5.0901e-05
4.77609e-05
5.86246e-07
5.32223e-06
2.43788e-05
5.27682e-05
4.83766e-05
6.14936e-07
5.59259e-06
2.57803e-05
5.52565e-05
4.92293e-05
6.38819e-07
5.85075e-06
2.71601e-05
5.76659e-05
5.02209e-05
)
;

boundaryField
{
    fuel
    {
        type            fixedValue;
        value           uniform 0;
    }
    air
    {
        type            fixedValue;
        value           nonuniform List<scalar> 0();
    }
    outlet
    {
        type            inletOutlet;
        inletValue      uniform 0;
        value           nonuniform List<scalar> 5(6.38819e-07 5.85075e-06 2.71601e-05 5.76659e-05 5.02209e-05);
    }
    frontAndBack
    {
        type            empty;
    }
    procBoundary2to0
    {
        type            processor;
        value           nonuniform List<scalar> 5(5.39151e-07 4.88764e-06 2.24487e-05 4.97746e-05 4.73926e-05);
    }
    procBoundary2to3
    {
        type            processor;
        value           nonuniform List<scalar> 5(1.96343e-05 1.98272e-05 2.13564e-05 2.40579e-05 2.78905e-05);
    }
}


// ************************************************************************* //
