/*--------------------------------*- C++ -*----------------------------------*\
  =========                 |
  \\      /  F ield         | OpenFOAM: The Open Source CFD Toolbox
   \\    /   O peration     | Website:  https://openfoam.org
    \\  /    A nd           | Version:  8
     \\/     M anipulation  |
\*---------------------------------------------------------------------------*/
FoamFile
{
    version     2.0;
    format      ascii;
    class       volScalarField;
    location    "0.1";
    object      CH3;
}
// * * * * * * * * * * * * * * * * * * * * * * * * * * * * * * * * * * * * * //

dimensions      [0 0 0 0 0 0 0];

internalField   nonuniform List<scalar> 
25
(
6.32281e-09
5.68828e-08
5.43734e-07
6.34311e-06
4.36265e-05
6.26187e-09
5.66339e-08
5.44299e-07
6.37045e-06
4.34962e-05
6.19082e-09
5.6551e-08
5.46904e-07
6.46815e-06
4.47368e-05
6.06396e-09
5.63011e-08
5.53021e-07
6.67151e-06
4.62473e-05
5.98876e-09
5.66457e-08
5.69583e-07
7.06455e-06
4.79587e-05
)
;

boundaryField
{
    fuel
    {
        type            fixedValue;
        value           uniform 0;
    }
    air
    {
        type            fixedValue;
        value           nonuniform List<scalar> 0();
    }
    outlet
    {
        type            inletOutlet;
        inletValue      uniform 0;
        value           nonuniform List<scalar> 5(5.98876e-09 5.66457e-08 5.69583e-07 7.06455e-06 4.79587e-05);
    }
    frontAndBack
    {
        type            empty;
    }
    procBoundary2to0
    {
        type            processor;
        value           nonuniform List<scalar> 5(6.32332e-09 5.68701e-08 5.41577e-07 6.27485e-06 4.28091e-05);
    }
    procBoundary2to3
    {
        type            processor;
        value           nonuniform List<scalar> 5(0.000186261 0.000184676 0.000195321 0.000208089 0.000223467);
    }
}


// ************************************************************************* //
