/*--------------------------------*- C++ -*----------------------------------*\
  =========                 |
  \\      /  F ield         | OpenFOAM: The Open Source CFD Toolbox
   \\    /   O peration     | Website:  https://openfoam.org
    \\  /    A nd           | Version:  8
     \\/     M anipulation  |
\*---------------------------------------------------------------------------*/
FoamFile
{
    version     2.0;
    format      ascii;
    class       volScalarField;
    location    "0.1";
    object      CH3OH;
}
// * * * * * * * * * * * * * * * * * * * * * * * * * * * * * * * * * * * * * //

dimensions      [0 0 0 0 0 0 0];

internalField   nonuniform List<scalar> 
25
(
1.12573e-08
1.22815e-07
7.67128e-07
1.04521e-07
5.09114e-07
1.11224e-08
1.2077e-07
7.56121e-07
1.04114e-07
5.1406e-07
1.10894e-08
1.19175e-07
7.41309e-07
1.05716e-07
5.5036e-07
1.10482e-08
1.16722e-07
7.21158e-07
1.09484e-07
6.063e-07
1.10799e-08
1.15484e-07
7.09309e-07
1.15012e-07
6.73209e-07
)
;

boundaryField
{
    fuel
    {
        type            fixedValue;
        value           uniform 0;
    }
    air
    {
        type            fixedValue;
        value           nonuniform List<scalar> 0();
    }
    outlet
    {
        type            inletOutlet;
        inletValue      uniform 0;
        value           nonuniform List<scalar> 5(1.10799e-08 1.15484e-07 7.09309e-07 1.15012e-07 6.73209e-07);
    }
    frontAndBack
    {
        type            empty;
    }
    procBoundary2to0
    {
        type            processor;
        value           nonuniform List<scalar> 5(1.12563e-08 1.22818e-07 7.67649e-07 1.03615e-07 4.9797e-07);
    }
    procBoundary2to3
    {
        type            processor;
        value           nonuniform List<scalar> 5(2.83135e-06 2.84584e-06 3.10029e-06 3.49452e-06 4.01208e-06);
    }
}


// ************************************************************************* //
