/*--------------------------------*- C++ -*----------------------------------*\
  =========                 |
  \\      /  F ield         | OpenFOAM: The Open Source CFD Toolbox
   \\    /   O peration     | Website:  https://openfoam.org
    \\  /    A nd           | Version:  8
     \\/     M anipulation  |
\*---------------------------------------------------------------------------*/
FoamFile
{
    version     2.0;
    format      ascii;
    class       volScalarField;
    location    "0.1";
    object      H;
}
// * * * * * * * * * * * * * * * * * * * * * * * * * * * * * * * * * * * * * //

dimensions      [0 0 0 0 0 0 0];

internalField   nonuniform List<scalar> 
25
(
6.0327e-13
4.49756e-11
2.22097e-09
5.71776e-08
5.81795e-07
5.86251e-13
4.37658e-11
2.16692e-09
5.58142e-08
5.64146e-07
5.68238e-13
4.24092e-11
2.1023e-09
5.42274e-08
5.49894e-07
5.36662e-13
4.01453e-11
1.99921e-09
5.16329e-08
5.15306e-07
5.17655e-13
3.87807e-11
1.94127e-09
5.02288e-08
4.78893e-07
)
;

boundaryField
{
    fuel
    {
        type            fixedValue;
        value           uniform 0;
    }
    air
    {
        type            fixedValue;
        value           nonuniform List<scalar> 0();
    }
    outlet
    {
        type            inletOutlet;
        inletValue      uniform 0;
        value           nonuniform List<scalar> 5(5.17655e-13 3.87807e-11 1.94127e-09 5.02288e-08 4.78893e-07);
    }
    frontAndBack
    {
        type            empty;
    }
    procBoundary2to0
    {
        type            processor;
        value           nonuniform List<scalar> 5(5.90294e-13 4.39713e-11 2.16906e-09 5.57252e-08 5.64566e-07);
    }
    procBoundary2to3
    {
        type            processor;
        value           nonuniform List<scalar> 5(3.24212e-06 3.12384e-06 3.08073e-06 2.89614e-06 2.70021e-06);
    }
}


// ************************************************************************* //
