/*--------------------------------*- C++ -*----------------------------------*\
  =========                 |
  \\      /  F ield         | OpenFOAM: The Open Source CFD Toolbox
   \\    /   O peration     | Website:  https://openfoam.org
    \\  /    A nd           | Version:  8
     \\/     M anipulation  |
\*---------------------------------------------------------------------------*/
FoamFile
{
    version     2.0;
    format      ascii;
    class       volScalarField;
    location    "0.1";
    object      H2O2;
}
// * * * * * * * * * * * * * * * * * * * * * * * * * * * * * * * * * * * * * //

dimensions      [0 0 0 0 0 0 0];

internalField   nonuniform List<scalar> 
25
(
3.66085e-09
3.60087e-08
1.9496e-07
5.50438e-07
4.82878e-07
3.5814e-09
3.54435e-08
1.93831e-07
5.52711e-07
4.90868e-07
3.48819e-09
3.48776e-08
1.9255e-07
5.54446e-07
5.02561e-07
3.34239e-09
3.38703e-08
1.90037e-07
5.55952e-07
5.13378e-07
3.23073e-09
3.30632e-08
1.88625e-07
5.61627e-07
5.1554e-07
)
;

boundaryField
{
    fuel
    {
        type            fixedValue;
        value           uniform 0;
    }
    air
    {
        type            fixedValue;
        value           nonuniform List<scalar> 0();
    }
    outlet
    {
        type            inletOutlet;
        inletValue      uniform 0;
        value           nonuniform List<scalar> 5(3.23073e-09 3.30632e-08 1.88625e-07 5.61627e-07 5.1554e-07);
    }
    frontAndBack
    {
        type            empty;
    }
    procBoundary2to0
    {
        type            processor;
        value           nonuniform List<scalar> 5(3.66097e-09 3.60092e-08 1.94964e-07 5.50511e-07 4.8288e-07);
    }
    procBoundary2to3
    {
        type            processor;
        value           nonuniform List<scalar> 5(2.13234e-06 2.18059e-06 2.26465e-06 2.35366e-06 2.3829e-06);
    }
}


// ************************************************************************* //
