/*--------------------------------*- C++ -*----------------------------------*\
  =========                 |
  \\      /  F ield         | OpenFOAM: The Open Source CFD Toolbox
   \\    /   O peration     | Website:  https://openfoam.org
    \\  /    A nd           | Version:  8
     \\/     M anipulation  |
\*---------------------------------------------------------------------------*/
FoamFile
{
    version     2.0;
    format      ascii;
    class       volScalarField;
    location    "0.1";
    object      HCCOH;
}
// * * * * * * * * * * * * * * * * * * * * * * * * * * * * * * * * * * * * * //

dimensions      [0 0 0 0 0 0 0];

internalField   nonuniform List<scalar> 
25
(
1.1054e-08
1.2731e-07
8.71335e-07
3.21604e-06
5.82475e-06
1.05961e-08
1.23512e-07
8.57407e-07
3.19423e-06
5.7908e-06
9.98103e-09
1.18576e-07
8.36755e-07
3.14592e-06
5.70575e-06
9.11951e-09
1.11478e-07
8.06983e-07
3.08214e-06
5.56415e-06
8.42011e-09
1.05342e-07
7.83914e-07
3.04933e-06
5.41271e-06
)
;

boundaryField
{
    fuel
    {
        type            fixedValue;
        value           uniform 0;
    }
    air
    {
        type            fixedValue;
        value           nonuniform List<scalar> 0();
    }
    outlet
    {
        type            inletOutlet;
        inletValue      uniform 0;
        value           nonuniform List<scalar> 5(8.42011e-09 1.05342e-07 7.83914e-07 3.04933e-06 5.41271e-06);
    }
    frontAndBack
    {
        type            empty;
    }
    procBoundary2to0
    {
        type            processor;
        value           nonuniform List<scalar> 5(1.10545e-08 1.27315e-07 8.71363e-07 3.2161e-06 5.8265e-06);
    }
    procBoundary2to3
    {
        type            processor;
        value           nonuniform List<scalar> 5(9.79973e-06 9.77081e-06 9.63612e-06 9.39197e-06 9.08499e-06);
    }
}


// ************************************************************************* //
