/*--------------------------------*- C++ -*----------------------------------*\
  =========                 |
  \\      /  F ield         | OpenFOAM: The Open Source CFD Toolbox
   \\    /   O peration     | Website:  https://openfoam.org
    \\  /    A nd           | Version:  8
     \\/     M anipulation  |
\*---------------------------------------------------------------------------*/
FoamFile
{
    version     2.0;
    format      ascii;
    class       volScalarField;
    location    "0.1";
    object      NCO;
}
// * * * * * * * * * * * * * * * * * * * * * * * * * * * * * * * * * * * * * //

dimensions      [0 0 0 0 0 0 0];

internalField   nonuniform List<scalar> 
25
(
3.47975e-15
2.96983e-14
4.01248e-13
4.80068e-12
4.88222e-11
3.48508e-15
2.97385e-14
4.04225e-13
4.87292e-12
4.94634e-11
3.48564e-15
2.98038e-14
4.08624e-13
5.02278e-12
5.12478e-11
3.48181e-15
3.00888e-14
4.20787e-13
5.34488e-12
5.4385e-11
3.50648e-15
3.09026e-14
4.43388e-13
5.83987e-12
5.75623e-11
)
;

boundaryField
{
    fuel
    {
        type            fixedValue;
        value           uniform 0;
    }
    air
    {
        type            fixedValue;
        value           nonuniform List<scalar> 0();
    }
    outlet
    {
        type            inletOutlet;
        inletValue      uniform 0;
        value           nonuniform List<scalar> 5(3.50648e-15 3.09026e-14 4.43388e-13 5.83987e-12 5.75623e-11);
    }
    frontAndBack
    {
        type            empty;
    }
    procBoundary2to0
    {
        type            processor;
        value           nonuniform List<scalar> 5(3.48011e-15 2.97095e-14 4.0108e-13 4.79034e-12 4.86907e-11);
    }
    procBoundary2to3
    {
        type            processor;
        value           nonuniform List<scalar> 5(2.67096e-10 2.71e-10 2.84139e-10 3.08349e-10 3.34503e-10);
    }
}


// ************************************************************************* //
