/*--------------------------------*- C++ -*----------------------------------*\
  =========                 |
  \\      /  F ield         | OpenFOAM: The Open Source CFD Toolbox
   \\    /   O peration     | Website:  https://openfoam.org
    \\  /    A nd           | Version:  8
     \\/     M anipulation  |
\*---------------------------------------------------------------------------*/
FoamFile
{
    version     2.0;
    format      ascii;
    class       volScalarField;
    location    "0.1";
    object      NH2;
}
// * * * * * * * * * * * * * * * * * * * * * * * * * * * * * * * * * * * * * //

dimensions      [0 0 0 0 0 0 0];

internalField   nonuniform List<scalar> 
25
(
8.0829e-13
7.43928e-12
3.74907e-11
2.46341e-10
2.50168e-09
7.81483e-13
7.33622e-12
3.76973e-11
2.42014e-10
2.44231e-09
7.40569e-13
7.17318e-12
3.76285e-11
2.38078e-10
2.41313e-09
6.77508e-13
6.88648e-12
3.74928e-11
2.30324e-10
2.30137e-09
6.24492e-13
6.6267e-12
3.76788e-11
2.27056e-10
2.17085e-09
)
;

boundaryField
{
    fuel
    {
        type            fixedValue;
        value           uniform 0;
    }
    air
    {
        type            fixedValue;
        value           nonuniform List<scalar> 0();
    }
    outlet
    {
        type            inletOutlet;
        inletValue      uniform 0;
        value           nonuniform List<scalar> 5(6.24492e-13 6.6267e-12 3.76788e-11 2.27056e-10 2.17085e-09);
    }
    frontAndBack
    {
        type            empty;
    }
    procBoundary2to0
    {
        type            processor;
        value           nonuniform List<scalar> 5(8.08464e-13 7.44071e-12 3.73412e-11 2.40061e-10 2.42715e-09);
    }
    procBoundary2to3
    {
        type            processor;
        value           nonuniform List<scalar> 5(1.39238e-08 1.35118e-08 1.35255e-08 1.29655e-08 1.2286e-08);
    }
}


// ************************************************************************* //
