/*--------------------------------*- C++ -*----------------------------------*\
  =========                 |
  \\      /  F ield         | OpenFOAM: The Open Source CFD Toolbox
   \\    /   O peration     | Website:  https://openfoam.org
    \\  /    A nd           | Version:  8
     \\/     M anipulation  |
\*---------------------------------------------------------------------------*/
FoamFile
{
    version     2.0;
    format      ascii;
    class       volScalarField;
    location    "0.1";
    object      OH;
}
// * * * * * * * * * * * * * * * * * * * * * * * * * * * * * * * * * * * * * //

dimensions      [0 0 0 0 0 0 0];

internalField   nonuniform List<scalar> 
25
(
1.87138e-11
1.38997e-09
6.86373e-08
1.77977e-06
1.8157e-05
1.88136e-11
1.40048e-09
6.94356e-08
1.80645e-06
1.83979e-05
1.9174e-11
1.42899e-09
7.10396e-08
1.85491e-06
1.89937e-05
1.96122e-11
1.46848e-09
7.3634e-08
1.93833e-06
1.97302e-05
2.06051e-11
1.55077e-09
7.84936e-08
2.08546e-06
2.05352e-05
)
;

boundaryField
{
    fuel
    {
        type            fixedValue;
        value           uniform 0;
    }
    air
    {
        type            fixedValue;
        value           nonuniform List<scalar> 0();
    }
    outlet
    {
        type            inletOutlet;
        inletValue      uniform 0;
        value           nonuniform List<scalar> 5(2.06051e-11 1.55077e-09 7.84936e-08 2.08546e-06 2.05352e-05);
    }
    frontAndBack
    {
        type            empty;
    }
    procBoundary2to0
    {
        type            processor;
        value           nonuniform List<scalar> 5(1.86876e-11 1.38792e-09 6.85303e-08 1.77676e-06 1.81182e-05);
    }
    procBoundary2to3
    {
        type            processor;
        value           nonuniform List<scalar> 5(0.000101634 0.000103156 0.000107775 0.000113797 0.000121102);
    }
}


// ************************************************************************* //
