/*--------------------------------*- C++ -*----------------------------------*\
  =========                 |
  \\      /  F ield         | OpenFOAM: The Open Source CFD Toolbox
   \\    /   O peration     | Website:  https://openfoam.org
    \\  /    A nd           | Version:  8
     \\/     M anipulation  |
\*---------------------------------------------------------------------------*/
FoamFile
{
    version     2.0;
    format      ascii;
    class       volVectorField;
    location    "0.1";
    object      U;
}
// * * * * * * * * * * * * * * * * * * * * * * * * * * * * * * * * * * * * * //

dimensions      [0 1 -1 0 0 0 0];

internalField   nonuniform List<vector> 
25
(
(0.100731 0.00753137 0)
(0.0903886 0.0194852 0)
(0.0572714 0.0285881 0)
(0.00637419 0.0364297 -6.37181e-29)
(-0.100056 0.0392948 0)
(0.10001 0.0225618 0)
(0.0924927 0.0559127 0)
(0.0564327 0.0836655 0)
(0.00535706 0.107525 0)
(-0.0998758 0.11701 0)
(0.0995605 0.036948 0)
(0.0912953 0.0972531 0)
(0.0548204 0.147805 0)
(0.00468608 0.18497 0)
(-0.0973578 0.195911 0)
(0.100085 0.0521368 0)
(0.0927439 0.126079 0)
(0.0550245 0.189131 0)
(0.00239348 0.241429 0)
(-0.096019 0.261776 0)
(0.0996289 0.0701648 0)
(0.0917019 0.190193 0)
(0.0518225 0.287485 0)
(-0.00845822 0.357032 0)
(-0.0970689 0.35073 0)
)
;

boundaryField
{
    fuel
    {
        type            fixedValue;
        value           uniform (0.1 0 0);
    }
    air
    {
        type            fixedValue;
        value           nonuniform List<vector> 0();
    }
    outlet
    {
        type            pressureInletOutletVelocity;
        value           nonuniform List<vector> 5((0.0996289 0.0701648 0) (0.0917019 0.190193 0) (0.0518225 0.287485 0) (-0.00845822 0.357032 0) (-0.0970689 0.35073 0));
    }
    frontAndBack
    {
        type            empty;
    }
    procBoundary2to0
    {
        type            processor;
        value           nonuniform List<vector> 5((0.10073 -0.00752882 0) (0.0903868 -0.0194772 0) (0.0572683 -0.0285736 0) (0.00636225 -0.0364055 0) (-0.100085 -0.0392623 0));
    }
    procBoundary2to3
    {
        type            processor;
        value           nonuniform List<vector> 5((-0.189415 0.0380466 0) (-0.188425 0.114015 0) (-0.184544 0.190398 0) (-0.176183 0.256131 0) (-0.159928 0.334942 0));
    }
}


// ************************************************************************* //
