/*--------------------------------*- C++ -*----------------------------------*\
  =========                 |
  \\      /  F ield         | OpenFOAM: The Open Source CFD Toolbox
   \\    /   O peration     | Website:  https://openfoam.org
    \\  /    A nd           | Version:  8
     \\/     M anipulation  |
\*---------------------------------------------------------------------------*/
FoamFile
{
    version     2.0;
    format      ascii;
    class       volScalarField;
    location    "0.15";
    object      C2H5;
}
// * * * * * * * * * * * * * * * * * * * * * * * * * * * * * * * * * * * * * //

dimensions      [0 0 0 0 0 0 0];

internalField   nonuniform List<scalar> 
25
(
4.32715e-07
4.29923e-08
1.86417e-09
3.21085e-11
6.14709e-13
3.38578e-07
3.38831e-08
1.43786e-09
2.53657e-11
5.05134e-13
2.8445e-07
2.79317e-08
1.15435e-09
2.08692e-11
4.22178e-13
2.44288e-07
2.38414e-08
9.64799e-10
1.78985e-11
3.68704e-13
2.20122e-07
2.15244e-08
8.68264e-10
1.6486e-11
3.43867e-13
)
;

boundaryField
{
    fuel
    {
        type            fixedValue;
        value           nonuniform List<scalar> 0();
    }
    air
    {
        type            fixedValue;
        value           uniform 0;
    }
    outlet
    {
        type            inletOutlet;
        inletValue      uniform 0;
        value           nonuniform List<scalar> 5(4.32715e-07 4.29923e-08 1.86417e-09 3.21085e-11 6.14709e-13);
    }
    frontAndBack
    {
        type            empty;
    }
    procBoundary1to0
    {
        type            processor;
        value           nonuniform List<scalar> 5(1.05379e-07 9.26512e-08 8.76801e-08 8.31962e-08 8.00584e-08);
    }
    procBoundary1to3
    {
        type            processor;
        value           nonuniform List<scalar> 5(2.18822e-07 2.13376e-08 8.60117e-10 1.63694e-11 3.4287e-13);
    }
}


// ************************************************************************* //
