/*--------------------------------*- C++ -*----------------------------------*\
  =========                 |
  \\      /  F ield         | OpenFOAM: The Open Source CFD Toolbox
   \\    /   O peration     | Website:  https://openfoam.org
    \\  /    A nd           | Version:  8
     \\/     M anipulation  |
\*---------------------------------------------------------------------------*/
FoamFile
{
    version     2.0;
    format      ascii;
    class       volScalarField;
    location    "0.15";
    object      CH2(S);
}
// * * * * * * * * * * * * * * * * * * * * * * * * * * * * * * * * * * * * * //

dimensions      [0 0 0 0 0 0 0];

internalField   nonuniform List<scalar> 
25
(
1.25723e-08
1.30556e-09
5.78922e-11
8.53823e-13
6.99667e-15
1.26216e-08
1.27368e-09
5.4451e-11
7.86352e-13
6.5885e-15
1.27922e-08
1.25604e-09
5.19409e-11
7.38409e-13
6.16575e-15
1.25652e-08
1.21894e-09
4.92397e-11
6.90803e-13
5.75215e-15
1.20447e-08
1.17058e-09
4.69592e-11
6.5334e-13
5.43034e-15
)
;

boundaryField
{
    fuel
    {
        type            fixedValue;
        value           nonuniform List<scalar> 0();
    }
    air
    {
        type            fixedValue;
        value           uniform 0;
    }
    outlet
    {
        type            inletOutlet;
        inletValue      uniform 0;
        value           nonuniform List<scalar> 5(1.25723e-08 1.30556e-09 5.78922e-11 8.53823e-13 6.99667e-15);
    }
    frontAndBack
    {
        type            empty;
    }
    procBoundary1to0
    {
        type            processor;
        value           nonuniform List<scalar> 5(2.18959e-09 2.22835e-09 2.2727e-09 2.25015e-09 2.17432e-09);
    }
    procBoundary1to3
    {
        type            processor;
        value           nonuniform List<scalar> 5(1.19874e-08 1.1624e-09 4.66031e-11 6.48258e-13 5.38743e-15);
    }
}


// ************************************************************************* //
