/*--------------------------------*- C++ -*----------------------------------*\
  =========                 |
  \\      /  F ield         | OpenFOAM: The Open Source CFD Toolbox
   \\    /   O peration     | Website:  https://openfoam.org
    \\  /    A nd           | Version:  8
     \\/     M anipulation  |
\*---------------------------------------------------------------------------*/
FoamFile
{
    version     2.0;
    format      ascii;
    class       volScalarField;
    location    "0.15";
    object      CH2CHO;
}
// * * * * * * * * * * * * * * * * * * * * * * * * * * * * * * * * * * * * * //

dimensions      [0 0 0 0 0 0 0];

internalField   nonuniform List<scalar> 
25
(
2.21426e-09
2.19511e-10
1.92795e-11
1.24729e-12
2.65953e-14
1.6305e-09
1.62726e-10
1.34651e-11
1.03305e-12
2.23939e-14
1.19129e-09
1.18664e-10
9.62901e-12
8.88016e-13
1.92696e-14
9.61016e-10
9.44583e-11
4.23453e-12
7.61521e-13
1.70267e-14
8.48481e-10
8.38647e-11
6.95689e-12
7.91832e-13
1.68146e-14
)
;

boundaryField
{
    fuel
    {
        type            fixedValue;
        value           nonuniform List<scalar> 0();
    }
    air
    {
        type            fixedValue;
        value           uniform 0;
    }
    outlet
    {
        type            inletOutlet;
        inletValue      uniform 0;
        value           nonuniform List<scalar> 5(2.21426e-09 2.19511e-10 1.92795e-11 1.24729e-12 2.65953e-14);
    }
    frontAndBack
    {
        type            empty;
    }
    procBoundary1to0
    {
        type            processor;
        value           nonuniform List<scalar> 5(2.43396e-09 2.23176e-09 1.3158e-09 1.21014e-09 1.19043e-09);
    }
    procBoundary1to3
    {
        type            processor;
        value           nonuniform List<scalar> 5(8.42414e-10 8.299e-11 6.91768e-12 7.90928e-13 1.68055e-14);
    }
}


// ************************************************************************* //
