/*--------------------------------*- C++ -*----------------------------------*\
  =========                 |
  \\      /  F ield         | OpenFOAM: The Open Source CFD Toolbox
   \\    /   O peration     | Website:  https://openfoam.org
    \\  /    A nd           | Version:  8
     \\/     M anipulation  |
\*---------------------------------------------------------------------------*/
FoamFile
{
    version     2.0;
    format      ascii;
    class       volScalarField;
    location    "0.15";
    object      CH2OH;
}
// * * * * * * * * * * * * * * * * * * * * * * * * * * * * * * * * * * * * * //

dimensions      [0 0 0 0 0 0 0];

internalField   nonuniform List<scalar> 
25
(
3.19571e-08
3.29529e-09
1.4559e-10
2.15422e-12
1.80498e-14
3.09542e-08
3.11829e-09
1.33118e-10
1.93079e-12
1.65119e-14
3.05577e-08
2.99957e-09
1.23988e-10
1.77097e-12
1.50718e-14
2.94683e-08
2.86089e-09
1.15582e-10
1.62912e-12
1.38121e-14
2.80304e-08
2.72622e-09
1.09393e-10
1.5291e-12
1.29349e-14
)
;

boundaryField
{
    fuel
    {
        type            fixedValue;
        value           nonuniform List<scalar> 0();
    }
    air
    {
        type            fixedValue;
        value           uniform 0;
    }
    outlet
    {
        type            inletOutlet;
        inletValue      uniform 0;
        value           nonuniform List<scalar> 5(3.19571e-08 3.29529e-09 1.4559e-10 2.15422e-12 1.80498e-14);
    }
    frontAndBack
    {
        type            empty;
    }
    procBoundary1to0
    {
        type            processor;
        value           nonuniform List<scalar> 5(5.52049e-09 5.45026e-09 5.42482e-09 5.28044e-09 5.06386e-09);
    }
    procBoundary1to3
    {
        type            processor;
        value           nonuniform List<scalar> 5(2.78955e-08 2.70693e-09 1.08553e-10 1.51711e-12 1.28336e-14);
    }
}


// ************************************************************************* //
