/*--------------------------------*- C++ -*----------------------------------*\
  =========                 |
  \\      /  F ield         | OpenFOAM: The Open Source CFD Toolbox
   \\    /   O peration     | Website:  https://openfoam.org
    \\  /    A nd           | Version:  8
     \\/     M anipulation  |
\*---------------------------------------------------------------------------*/
FoamFile
{
    version     2.0;
    format      ascii;
    class       volScalarField;
    location    "0.15";
    object      H2CN;
}
// * * * * * * * * * * * * * * * * * * * * * * * * * * * * * * * * * * * * * //

dimensions      [0 0 0 0 0 0 0];

internalField   nonuniform List<scalar> 
25
(
5.65411e-12
6.02529e-13
6.83856e-14
2.99249e-13
3.32735e-14
5.9584e-12
6.16867e-13
6.52599e-14
2.69929e-13
3.15767e-14
6.64833e-12
6.60577e-13
6.69248e-14
2.52784e-13
3.07697e-14
6.78949e-12
6.69346e-13
8.61266e-14
2.41326e-13
3.04136e-14
6.58816e-12
6.50229e-13
7.63761e-14
2.34702e-13
3.03457e-14
)
;

boundaryField
{
    fuel
    {
        type            fixedValue;
        value           nonuniform List<scalar> 0();
    }
    air
    {
        type            fixedValue;
        value           uniform 0;
    }
    outlet
    {
        type            inletOutlet;
        inletValue      uniform 0;
        value           nonuniform List<scalar> 5(5.65411e-12 6.02529e-13 6.83856e-14 2.99249e-13 3.32735e-14);
    }
    frontAndBack
    {
        type            empty;
    }
    procBoundary1to0
    {
        type            processor;
        value           nonuniform List<scalar> 5(2.90971e-12 3.08977e-12 3.28016e-12 3.36531e-12 3.37063e-12);
    }
    procBoundary1to3
    {
        type            processor;
        value           nonuniform List<scalar> 5(6.55557e-12 6.45583e-13 7.61829e-14 2.34665e-13 3.03364e-14);
    }
}


// ************************************************************************* //
