/*--------------------------------*- C++ -*----------------------------------*\
  =========                 |
  \\      /  F ield         | OpenFOAM: The Open Source CFD Toolbox
   \\    /   O peration     | Website:  https://openfoam.org
    \\  /    A nd           | Version:  8
     \\/     M anipulation  |
\*---------------------------------------------------------------------------*/
FoamFile
{
    version     2.0;
    format      ascii;
    class       volScalarField;
    location    "0.15";
    object      HCCOH;
}
// * * * * * * * * * * * * * * * * * * * * * * * * * * * * * * * * * * * * * //

dimensions      [0 0 0 0 0 0 0];

internalField   nonuniform List<scalar> 
25
(
1.13559e-05
1.23623e-06
3.45871e-07
5.33029e-08
4.51426e-09
1.13379e-05
1.19971e-06
3.31477e-07
5.09863e-08
4.36579e-09
1.12521e-05
1.16522e-06
3.19363e-07
4.944e-08
4.25361e-09
1.1149e-05
1.14085e-06
3.09848e-07
4.79708e-08
4.14752e-09
1.11113e-05
1.1321e-06
3.0588e-07
4.68916e-08
4.07838e-09
)
;

boundaryField
{
    fuel
    {
        type            fixedValue;
        value           nonuniform List<scalar> 0();
    }
    air
    {
        type            fixedValue;
        value           uniform 0;
    }
    outlet
    {
        type            inletOutlet;
        inletValue      uniform 0;
        value           nonuniform List<scalar> 5(1.13559e-05 1.23623e-06 3.45871e-07 5.33029e-08 4.51426e-09);
    }
    frontAndBack
    {
        type            empty;
    }
    procBoundary1to0
    {
        type            processor;
        value           nonuniform List<scalar> 5(6.91367e-06 7.03725e-06 7.2488e-06 7.2891e-06 7.29644e-06);
    }
    procBoundary1to3
    {
        type            processor;
        value           nonuniform List<scalar> 5(1.11136e-05 1.13244e-06 3.05859e-07 4.68862e-08 4.07806e-09);
    }
}


// ************************************************************************* //
