/*--------------------------------*- C++ -*----------------------------------*\
  =========                 |
  \\      /  F ield         | OpenFOAM: The Open Source CFD Toolbox
   \\    /   O peration     | Website:  https://openfoam.org
    \\  /    A nd           | Version:  8
     \\/     M anipulation  |
\*---------------------------------------------------------------------------*/
FoamFile
{
    version     2.0;
    format      ascii;
    class       volScalarField;
    location    "0.15";
    object      HO2;
}
// * * * * * * * * * * * * * * * * * * * * * * * * * * * * * * * * * * * * * //

dimensions      [0 0 0 0 0 0 0];

internalField   nonuniform List<scalar> 
25
(
1.15327e-06
4.38827e-06
1.69194e-05
1.49341e-06
1.15377e-07
1.13336e-06
4.29668e-06
1.57811e-05
1.37698e-06
1.0841e-07
1.0863e-06
4.03071e-06
1.42621e-05
1.27749e-06
1.02366e-07
1.05176e-06
3.90149e-06
1.32697e-05
1.20959e-06
9.80155e-08
1.03506e-06
3.86404e-06
1.33078e-05
1.17215e-06
9.54151e-08
)
;

boundaryField
{
    fuel
    {
        type            fixedValue;
        value           nonuniform List<scalar> 0();
    }
    air
    {
        type            fixedValue;
        value           uniform 0;
    }
    outlet
    {
        type            inletOutlet;
        inletValue      uniform 0;
        value           nonuniform List<scalar> 5(1.15327e-06 4.38827e-06 1.69194e-05 1.49341e-06 1.15377e-07);
    }
    frontAndBack
    {
        type            empty;
    }
    procBoundary1to0
    {
        type            processor;
        value           nonuniform List<scalar> 5(6.4102e-07 6.59163e-07 7.59845e-07 7.6781e-07 7.70338e-07);
    }
    procBoundary1to3
    {
        type            processor;
        value           nonuniform List<scalar> 5(1.03446e-06 3.86398e-06 1.3308e-05 1.17215e-06 9.54148e-08);
    }
}


// ************************************************************************* //
