/*--------------------------------*- C++ -*----------------------------------*\
  =========                 |
  \\      /  F ield         | OpenFOAM: The Open Source CFD Toolbox
   \\    /   O peration     | Website:  https://openfoam.org
    \\  /    A nd           | Version:  8
     \\/     M anipulation  |
\*---------------------------------------------------------------------------*/
FoamFile
{
    version     2.0;
    format      ascii;
    class       volScalarField;
    location    "0.15";
    object      N2;
}
// * * * * * * * * * * * * * * * * * * * * * * * * * * * * * * * * * * * * * //

dimensions      [0 0 0 0 0 0 0];

internalField   nonuniform List<scalar> 
25
(
0.704459
0.744315
0.763272
0.769283
0.769993
0.705988
0.745323
0.763639
0.769334
0.769995
0.70715
0.746122
0.763935
0.76937
0.769997
0.707793
0.746579
0.764144
0.769399
0.769998
0.708016
0.74673
0.76422
0.769414
0.769999
)
;

boundaryField
{
    fuel
    {
        type            fixedValue;
        value           nonuniform List<scalar> 0();
    }
    air
    {
        type            fixedValue;
        value           uniform 0.77;
    }
    outlet
    {
        type            inletOutlet;
        inletValue      uniform 1;
        value           nonuniform List<scalar> 5(0.704459 0.744315 0.763272 0.769283 0.769993);
    }
    frontAndBack
    {
        type            empty;
    }
    procBoundary1to0
    {
        type            processor;
        value           nonuniform List<scalar> 5(0.622754 0.623159 0.623837 0.624286 0.624404);
    }
    procBoundary1to3
    {
        type            processor;
        value           nonuniform List<scalar> 5(0.708017 0.746731 0.76422 0.769414 0.769999);
    }
}


// ************************************************************************* //
