/*--------------------------------*- C++ -*----------------------------------*\
  =========                 |
  \\      /  F ield         | OpenFOAM: The Open Source CFD Toolbox
   \\    /   O peration     | Website:  https://openfoam.org
    \\  /    A nd           | Version:  8
     \\/     M anipulation  |
\*---------------------------------------------------------------------------*/
FoamFile
{
    version     2.0;
    format      ascii;
    class       volScalarField;
    location    "0.15";
    object      NCO;
}
// * * * * * * * * * * * * * * * * * * * * * * * * * * * * * * * * * * * * * //

dimensions      [0 0 0 0 0 0 0];

internalField   nonuniform List<scalar> 
25
(
2.04778e-10
2.68512e-11
1.0704e-11
6.78611e-13
4.40183e-14
2.06468e-10
3.70395e-11
1.16669e-11
7.07082e-13
4.52888e-14
2.14596e-10
3.40469e-11
1.212e-11
7.41205e-13
4.70474e-14
2.20274e-10
5.24684e-11
1.41839e-11
8.02191e-13
4.95648e-14
2.13592e-10
3.91749e-11
1.3543e-11
8.09388e-13
5.03562e-14
)
;

boundaryField
{
    fuel
    {
        type            fixedValue;
        value           nonuniform List<scalar> 0();
    }
    air
    {
        type            fixedValue;
        value           uniform 0;
    }
    outlet
    {
        type            inletOutlet;
        inletValue      uniform 0;
        value           nonuniform List<scalar> 5(2.04778e-10 2.68512e-11 1.0704e-11 6.78611e-13 4.40183e-14);
    }
    frontAndBack
    {
        type            empty;
    }
    procBoundary1to0
    {
        type            processor;
        value           nonuniform List<scalar> 5(3.68847e-11 3.79008e-11 4.00093e-11 4.11808e-11 4.03758e-11);
    }
    procBoundary1to3
    {
        type            processor;
        value           nonuniform List<scalar> 5(2.1274e-10 3.90638e-11 1.35416e-11 8.09506e-13 5.03632e-14);
    }
}


// ************************************************************************* //
