/*--------------------------------*- C++ -*----------------------------------*\
  =========                 |
  \\      /  F ield         | OpenFOAM: The Open Source CFD Toolbox
   \\    /   O peration     | Website:  https://openfoam.org
    \\  /    A nd           | Version:  8
     \\/     M anipulation  |
\*---------------------------------------------------------------------------*/
FoamFile
{
    version     2.0;
    format      ascii;
    class       volScalarField;
    location    "0.15";
    object      T;
}
// * * * * * * * * * * * * * * * * * * * * * * * * * * * * * * * * * * * * * //

dimensions      [0 0 0 1 0 0 0];

internalField   nonuniform List<scalar> 
25
(
1677.03
1571.97
729.367
367.963
300.191
1680.46
1536.76
710.173
364.413
299.918
1683.72
1508.52
694.608
362.025
299.705
1685.71
1491.76
683.154
359.878
299.516
1686.67
1486.19
678.653
358.319
299.395
)
;

boundaryField
{
    fuel
    {
        type            fixedValue;
        value           nonuniform List<scalar> 0();
    }
    air
    {
        type            fixedValue;
        value           uniform 293;
    }
    outlet
    {
        type            inletOutlet;
        inletValue      uniform 293;
        value           nonuniform List<scalar> 5(1676.31 1572.81 729.999 368.228 300.244);
    }
    frontAndBack
    {
        type            empty;
    }
    procBoundary1to0
    {
        type            processor;
        value           nonuniform List<scalar> 5(1321.67 1321.46 1322.46 1323.27 1323.4);
    }
    procBoundary1to3
    {
        type            processor;
        value           nonuniform List<scalar> 5(1686.67 1486.18 678.648 358.318 299.395);
    }
}


// ************************************************************************* //
