/*--------------------------------*- C++ -*----------------------------------*\
  =========                 |
  \\      /  F ield         | OpenFOAM: The Open Source CFD Toolbox
   \\    /   O peration     | Website:  https://openfoam.org
    \\  /    A nd           | Version:  8
     \\/     M anipulation  |
\*---------------------------------------------------------------------------*/
FoamFile
{
    version     2.0;
    format      ascii;
    class       volScalarField;
    location    "0.1";
    object      C2H;
}
// * * * * * * * * * * * * * * * * * * * * * * * * * * * * * * * * * * * * * //

dimensions      [0 0 0 0 0 0 0];

internalField   nonuniform List<scalar> 
25
(
7.6717e-08
8.69855e-09
4.41918e-10
7.61013e-12
6.24355e-14
8.75408e-08
9.45816e-09
4.60976e-10
7.76516e-12
6.3193e-14
9.67183e-08
1.01178e-08
4.78685e-10
7.95879e-12
6.45948e-14
9.86461e-08
1.02567e-08
4.77353e-10
7.87425e-12
6.3799e-14
1.00243e-07
1.04142e-08
4.81856e-10
7.90732e-12
6.39019e-14
)
;

boundaryField
{
    fuel
    {
        type            fixedValue;
        value           nonuniform List<scalar> 0();
    }
    air
    {
        type            fixedValue;
        value           uniform 0;
    }
    outlet
    {
        type            inletOutlet;
        inletValue      uniform 0;
        value           nonuniform List<scalar> 5(7.6717e-08 8.69855e-09 4.41918e-10 7.61013e-12 6.24355e-14);
    }
    frontAndBack
    {
        type            empty;
    }
    procBoundary1to0
    {
        type            processor;
        value           nonuniform List<scalar> 5(1.36508e-08 1.54545e-08 1.70428e-08 1.75835e-08 1.79241e-08);
    }
    procBoundary1to3
    {
        type            processor;
        value           nonuniform List<scalar> 5(1.04412e-07 1.07565e-08 4.96384e-10 8.13859e-12 6.5733e-14);
    }
}


// ************************************************************************* //
