/*--------------------------------*- C++ -*----------------------------------*\
  =========                 |
  \\      /  F ield         | OpenFOAM: The Open Source CFD Toolbox
   \\    /   O peration     | Website:  https://openfoam.org
    \\  /    A nd           | Version:  8
     \\/     M anipulation  |
\*---------------------------------------------------------------------------*/
FoamFile
{
    version     2.0;
    format      ascii;
    class       volScalarField;
    location    "0.1";
    object      C2H4;
}
// * * * * * * * * * * * * * * * * * * * * * * * * * * * * * * * * * * * * * //

dimensions      [0 0 0 0 0 0 0];

internalField   nonuniform List<scalar> 
25
(
0.000828081
9.4038e-05
3.94487e-05
1.05365e-05
1.07305e-06
0.000633123
7.36158e-05
3.41805e-05
9.7585e-06
1.05361e-06
0.000494099
5.81074e-05
2.98114e-05
9.165e-06
1.04909e-06
0.000421163
4.97864e-05
2.71285e-05
8.71222e-06
1.03869e-06
0.000400559
4.71571e-05
2.59639e-05
8.42212e-06
1.02502e-06
)
;

boundaryField
{
    fuel
    {
        type            fixedValue;
        value           nonuniform List<scalar> 0();
    }
    air
    {
        type            fixedValue;
        value           uniform 0;
    }
    outlet
    {
        type            inletOutlet;
        inletValue      uniform 0;
        value           nonuniform List<scalar> 5(0.000828081 9.4038e-05 3.94487e-05 1.05365e-05 1.07305e-06);
    }
    frontAndBack
    {
        type            empty;
    }
    procBoundary1to0
    {
        type            processor;
        value           nonuniform List<scalar> 5(0.00104947 0.000945549 0.000852211 0.000797354 0.000774343);
    }
    procBoundary1to3
    {
        type            processor;
        value           nonuniform List<scalar> 5(0.000407898 4.77606e-05 2.59825e-05 8.42311e-06 1.02513e-06);
    }
}


// ************************************************************************* //
