/*--------------------------------*- C++ -*----------------------------------*\
  =========                 |
  \\      /  F ield         | OpenFOAM: The Open Source CFD Toolbox
   \\    /   O peration     | Website:  https://openfoam.org
    \\  /    A nd           | Version:  8
     \\/     M anipulation  |
\*---------------------------------------------------------------------------*/
FoamFile
{
    version     2.0;
    format      ascii;
    class       volScalarField;
    location    "0.1";
    object      C2H6;
}
// * * * * * * * * * * * * * * * * * * * * * * * * * * * * * * * * * * * * * //

dimensions      [0 0 0 0 0 0 0];

internalField   nonuniform List<scalar> 
25
(
0.000141043
1.64794e-05
8.13714e-06
2.61111e-06
3.25708e-07
0.00011529
1.36612e-05
7.15112e-06
2.31835e-06
2.96016e-07
9.75019e-05
1.15556e-05
6.32426e-06
2.05535e-06
2.66005e-07
8.85321e-05
1.04421e-05
5.78133e-06
1.84898e-06
2.39154e-07
8.57678e-05
1.00633e-05
5.52702e-06
1.72331e-06
2.21578e-07
)
;

boundaryField
{
    fuel
    {
        type            fixedValue;
        value           nonuniform List<scalar> 0();
    }
    air
    {
        type            fixedValue;
        value           uniform 0;
    }
    outlet
    {
        type            inletOutlet;
        inletValue      uniform 0;
        value           nonuniform List<scalar> 5(0.000141043 1.64794e-05 8.13714e-06 2.61111e-06 3.25708e-07);
    }
    frontAndBack
    {
        type            empty;
    }
    procBoundary1to0
    {
        type            processor;
        value           nonuniform List<scalar> 5(0.000540935 0.000516651 0.000494022 0.000480426 0.000474262);
    }
    procBoundary1to3
    {
        type            processor;
        value           nonuniform List<scalar> 5(8.63129e-05 1.01076e-05 5.52745e-06 1.72343e-06 2.21609e-07);
    }
}


// ************************************************************************* //
