/*--------------------------------*- C++ -*----------------------------------*\
  =========                 |
  \\      /  F ield         | OpenFOAM: The Open Source CFD Toolbox
   \\    /   O peration     | Website:  https://openfoam.org
    \\  /    A nd           | Version:  8
     \\/     M anipulation  |
\*---------------------------------------------------------------------------*/
FoamFile
{
    version     2.0;
    format      ascii;
    class       volScalarField;
    location    "0.1";
    object      C3H8;
}
// * * * * * * * * * * * * * * * * * * * * * * * * * * * * * * * * * * * * * //

dimensions      [0 0 0 0 0 0 0];

internalField   nonuniform List<scalar> 
25
(
3.33132e-07
4.1381e-08
3.04944e-08
1.08028e-08
1.31809e-09
2.80138e-07
3.50959e-08
2.60913e-08
9.54052e-09
1.2139e-09
2.43687e-07
3.03128e-08
2.23813e-08
8.40253e-09
1.1095e-09
2.25843e-07
2.77414e-08
1.99534e-08
7.48748e-09
1.00725e-09
2.1839e-07
2.66476e-08
1.87387e-08
6.90528e-09
9.33105e-10
)
;

boundaryField
{
    fuel
    {
        type            fixedValue;
        value           nonuniform List<scalar> 0();
    }
    air
    {
        type            fixedValue;
        value           uniform 0;
    }
    outlet
    {
        type            inletOutlet;
        inletValue      uniform 0;
        value           nonuniform List<scalar> 5(3.33132e-07 4.1381e-08 3.04944e-08 1.08028e-08 1.31809e-09);
    }
    frontAndBack
    {
        type            empty;
    }
    procBoundary1to0
    {
        type            processor;
        value           nonuniform List<scalar> 5(2.19693e-06 2.03857e-06 1.87896e-06 1.77933e-06 1.73154e-06);
    }
    procBoundary1to3
    {
        type            processor;
        value           nonuniform List<scalar> 5(2.17841e-07 2.66013e-08 1.87371e-08 6.9053e-09 9.33067e-10);
    }
}


// ************************************************************************* //
