/*--------------------------------*- C++ -*----------------------------------*\
  =========                 |
  \\      /  F ield         | OpenFOAM: The Open Source CFD Toolbox
   \\    /   O peration     | Website:  https://openfoam.org
    \\  /    A nd           | Version:  8
     \\/     M anipulation  |
\*---------------------------------------------------------------------------*/
FoamFile
{
    version     2.0;
    format      ascii;
    class       volScalarField;
    location    "0.1";
    object      CH;
}
// * * * * * * * * * * * * * * * * * * * * * * * * * * * * * * * * * * * * * //

dimensions      [0 0 0 0 0 0 0];

internalField   nonuniform List<scalar> 
25
(
1.12217e-09
1.26271e-10
6.3876e-12
1.09757e-13
8.99678e-16
1.24275e-09
1.33572e-10
6.49057e-12
1.0916e-13
8.87822e-16
1.31268e-09
1.37879e-10
6.53123e-12
1.08632e-13
8.81875e-16
1.35126e-09
1.40193e-10
6.51874e-12
1.07488e-13
8.70734e-16
1.35629e-09
1.40433e-10
6.49103e-12
1.06482e-13
8.6033e-16
)
;

boundaryField
{
    fuel
    {
        type            fixedValue;
        value           nonuniform List<scalar> 0();
    }
    air
    {
        type            fixedValue;
        value           uniform 0;
    }
    outlet
    {
        type            inletOutlet;
        inletValue      uniform 0;
        value           nonuniform List<scalar> 5(1.12217e-09 1.26271e-10 6.3876e-12 1.09757e-13 8.99678e-16);
    }
    frontAndBack
    {
        type            empty;
    }
    procBoundary1to0
    {
        type            processor;
        value           nonuniform List<scalar> 5(1.97764e-10 2.17809e-10 2.31982e-10 2.40137e-10 2.41558e-10);
    }
    procBoundary1to3
    {
        type            processor;
        value           nonuniform List<scalar> 5(1.33368e-09 1.38562e-10 6.4115e-12 1.05217e-13 8.50306e-16);
    }
}


// ************************************************************************* //
