/*--------------------------------*- C++ -*----------------------------------*\
  =========                 |
  \\      /  F ield         | OpenFOAM: The Open Source CFD Toolbox
   \\    /   O peration     | Website:  https://openfoam.org
    \\  /    A nd           | Version:  8
     \\/     M anipulation  |
\*---------------------------------------------------------------------------*/
FoamFile
{
    version     2.0;
    format      ascii;
    class       volScalarField;
    location    "0.1";
    object      CH2(S);
}
// * * * * * * * * * * * * * * * * * * * * * * * * * * * * * * * * * * * * * //

dimensions      [0 0 0 0 0 0 0];

internalField   nonuniform List<scalar> 
25
(
1.18091e-08
1.30806e-09
6.56085e-11
1.12248e-12
9.19405e-15
1.21634e-08
1.303e-09
6.31131e-11
1.05933e-12
8.61682e-15
1.22772e-08
1.28594e-09
6.07901e-11
1.00992e-12
8.2013e-15
1.20242e-08
1.25221e-09
5.82932e-11
9.61542e-13
7.7965e-15
1.20055e-08
1.24807e-09
5.77628e-11
9.47989e-13
7.6666e-15
)
;

boundaryField
{
    fuel
    {
        type            fixedValue;
        value           nonuniform List<scalar> 0();
    }
    air
    {
        type            fixedValue;
        value           uniform 0;
    }
    outlet
    {
        type            inletOutlet;
        inletValue      uniform 0;
        value           nonuniform List<scalar> 5(1.18091e-08 1.30806e-09 6.56085e-11 1.12248e-12 9.19405e-15);
    }
    frontAndBack
    {
        type            empty;
    }
    procBoundary1to0
    {
        type            processor;
        value           nonuniform List<scalar> 5(2.0445e-09 2.12061e-09 2.16107e-09 2.14393e-09 2.14601e-09);
    }
    procBoundary1to3
    {
        type            processor;
        value           nonuniform List<scalar> 5(1.23243e-08 1.27414e-09 5.8868e-11 9.65578e-13 7.80579e-15);
    }
}


// ************************************************************************* //
