/*--------------------------------*- C++ -*----------------------------------*\
  =========                 |
  \\      /  F ield         | OpenFOAM: The Open Source CFD Toolbox
   \\    /   O peration     | Website:  https://openfoam.org
    \\  /    A nd           | Version:  8
     \\/     M anipulation  |
\*---------------------------------------------------------------------------*/
FoamFile
{
    version     2.0;
    format      ascii;
    class       volScalarField;
    location    "0.1";
    object      CH2OH;
}
// * * * * * * * * * * * * * * * * * * * * * * * * * * * * * * * * * * * * * //

dimensions      [0 0 0 0 0 0 0];

internalField   nonuniform List<scalar> 
25
(
3.34629e-08
3.67253e-09
1.83352e-10
3.13703e-12
2.6206e-14
3.2973e-08
3.52353e-09
1.70377e-10
2.86385e-12
2.3741e-14
3.21204e-08
3.36761e-09
1.59232e-10
2.65196e-12
2.19346e-14
3.10036e-08
3.23092e-09
1.50475e-10
2.48897e-12
2.05478e-14
3.07599e-08
3.19854e-09
1.48094e-10
2.43737e-12
2.00632e-14
)
;

boundaryField
{
    fuel
    {
        type            fixedValue;
        value           nonuniform List<scalar> 0();
    }
    air
    {
        type            fixedValue;
        value           uniform 0;
    }
    outlet
    {
        type            inletOutlet;
        inletValue      uniform 0;
        value           nonuniform List<scalar> 5(3.34629e-08 3.67253e-09 1.83352e-10 3.13703e-12 2.6206e-14);
    }
    frontAndBack
    {
        type            empty;
    }
    procBoundary1to0
    {
        type            processor;
        value           nonuniform List<scalar> 5(5.73318e-09 5.72728e-09 5.65598e-09 5.53076e-09 5.49997e-09);
    }
    procBoundary1to3
    {
        type            processor;
        value           nonuniform List<scalar> 5(3.14e-08 3.25079e-09 1.50309e-10 2.47262e-12 2.03419e-14);
    }
}


// ************************************************************************* //
