/*--------------------------------*- C++ -*----------------------------------*\
  =========                 |
  \\      /  F ield         | OpenFOAM: The Open Source CFD Toolbox
   \\    /   O peration     | Website:  https://openfoam.org
    \\  /    A nd           | Version:  8
     \\/     M anipulation  |
\*---------------------------------------------------------------------------*/
FoamFile
{
    version     2.0;
    format      ascii;
    class       volScalarField;
    location    "0.1";
    object      CH3CHO;
}
// * * * * * * * * * * * * * * * * * * * * * * * * * * * * * * * * * * * * * //

dimensions      [0 0 0 0 0 0 0];

internalField   nonuniform List<scalar> 
25
(
1.13382e-07
2.17384e-08
5.10763e-08
1.08753e-08
1.43504e-09
7.29562e-08
1.60407e-08
3.95029e-08
9.45803e-09
1.33054e-09
4.78481e-08
1.17755e-08
3.05307e-08
8.28165e-09
1.24668e-09
3.86074e-08
9.7181e-09
2.55949e-08
7.4341e-09
1.17933e-09
3.55481e-08
8.90483e-09
2.35156e-08
6.96409e-09
1.13747e-09
)
;

boundaryField
{
    fuel
    {
        type            fixedValue;
        value           nonuniform List<scalar> 0();
    }
    air
    {
        type            fixedValue;
        value           uniform 0;
    }
    outlet
    {
        type            inletOutlet;
        inletValue      uniform 0;
        value           nonuniform List<scalar> 5(1.13382e-07 2.17384e-08 5.10763e-08 1.08753e-08 1.43504e-09);
    }
    frontAndBack
    {
        type            empty;
    }
    procBoundary1to0
    {
        type            processor;
        value           nonuniform List<scalar> 5(2.97173e-08 2.45719e-08 2.10741e-08 1.97094e-08 1.92799e-08);
    }
    procBoundary1to3
    {
        type            processor;
        value           nonuniform List<scalar> 5(3.52075e-08 8.87944e-09 2.35381e-08 6.9691e-09 1.13769e-09);
    }
}


// ************************************************************************* //
