/*--------------------------------*- C++ -*----------------------------------*\
  =========                 |
  \\      /  F ield         | OpenFOAM: The Open Source CFD Toolbox
   \\    /   O peration     | Website:  https://openfoam.org
    \\  /    A nd           | Version:  8
     \\/     M anipulation  |
\*---------------------------------------------------------------------------*/
FoamFile
{
    version     2.0;
    format      ascii;
    class       volScalarField;
    location    "0.1";
    object      CH4;
}
// * * * * * * * * * * * * * * * * * * * * * * * * * * * * * * * * * * * * * //

dimensions      [0 0 0 0 0 0 0];

internalField   nonuniform List<scalar> 
25
(
0.0259678
0.00298716
0.00092948
0.00019146
1.91112e-05
0.0243105
0.00275763
0.000864013
0.000177936
1.78746e-05
0.0230614
0.0025783
0.000812243
0.000167896
1.68855e-05
0.0223859
0.00248007
0.000778347
0.000160514
1.61418e-05
0.0222046
0.00245129
0.000764945
0.000156255
1.57185e-05
)
;

boundaryField
{
    fuel
    {
        type            fixedValue;
        value           nonuniform List<scalar> 0();
    }
    air
    {
        type            fixedValue;
        value           uniform 0;
    }
    outlet
    {
        type            inletOutlet;
        inletValue      uniform 0;
        value           nonuniform List<scalar> 5(0.0259678 0.00298716 0.00092948 0.00019146 1.91112e-05);
    }
    frontAndBack
    {
        type            empty;
    }
    procBoundary1to0
    {
        type            processor;
        value           nonuniform List<scalar> 5(0.146718 0.145621 0.14429 0.143435 0.143221);
    }
    procBoundary1to3
    {
        type            processor;
        value           nonuniform List<scalar> 5(0.022239 0.00245395 0.000765076 0.000156266 1.57199e-05);
    }
}


// ************************************************************************* //
