/*--------------------------------*- C++ -*----------------------------------*\
  =========                 |
  \\      /  F ield         | OpenFOAM: The Open Source CFD Toolbox
   \\    /   O peration     | Website:  https://openfoam.org
    \\  /    A nd           | Version:  8
     \\/     M anipulation  |
\*---------------------------------------------------------------------------*/
FoamFile
{
    version     2.0;
    format      ascii;
    class       volScalarField;
    location    "0.1";
    object      CN;
}
// * * * * * * * * * * * * * * * * * * * * * * * * * * * * * * * * * * * * * //

dimensions      [0 0 0 0 0 0 0];

internalField   nonuniform List<scalar> 
25
(
3.98195e-11
4.5696e-12
2.3374e-13
4.03933e-15
3.31865e-17
4.75122e-11
5.17961e-12
2.53809e-13
4.28784e-15
3.49334e-17
5.58264e-11
5.85403e-12
2.77521e-13
4.6197e-15
3.75092e-17
5.96154e-11
6.18941e-12
2.87997e-13
4.75094e-15
3.84907e-17
6.17201e-11
6.40195e-12
2.96036e-13
4.85699e-15
3.92457e-17
)
;

boundaryField
{
    fuel
    {
        type            fixedValue;
        value           nonuniform List<scalar> 0();
    }
    air
    {
        type            fixedValue;
        value           uniform 0;
    }
    outlet
    {
        type            inletOutlet;
        inletValue      uniform 0;
        value           nonuniform List<scalar> 5(3.98195e-11 4.5696e-12 2.3374e-13 4.03933e-15 3.31865e-17);
    }
    frontAndBack
    {
        type            empty;
    }
    procBoundary1to0
    {
        type            processor;
        value           nonuniform List<scalar> 5(7.19062e-12 8.48711e-12 9.87946e-12 1.06221e-11 1.10262e-11);
    }
    procBoundary1to3
    {
        type            processor;
        value           nonuniform List<scalar> 5(6.43887e-11 6.62096e-12 3.05331e-13 5.00494e-15 4.04171e-17);
    }
}


// ************************************************************************* //
