/*--------------------------------*- C++ -*----------------------------------*\
  =========                 |
  \\      /  F ield         | OpenFOAM: The Open Source CFD Toolbox
   \\    /   O peration     | Website:  https://openfoam.org
    \\  /    A nd           | Version:  8
     \\/     M anipulation  |
\*---------------------------------------------------------------------------*/
FoamFile
{
    version     2.0;
    format      ascii;
    class       volScalarField;
    location    "0.1";
    object      H;
}
// * * * * * * * * * * * * * * * * * * * * * * * * * * * * * * * * * * * * * //

dimensions      [0 0 0 0 0 0 0];

internalField   nonuniform List<scalar> 
25
(
2.67849e-06
7.82738e-07
3.8572e-08
6.53954e-10
5.33315e-12
2.89363e-06
6.76743e-07
3.26283e-08
5.45849e-10
4.43294e-12
3.07514e-06
6.05392e-07
2.86584e-08
4.76153e-10
3.86604e-12
3.08685e-06
5.72078e-07
2.666e-08
4.39919e-10
3.56645e-12
3.12093e-06
5.66506e-07
2.62317e-08
4.3061e-10
3.48157e-12
)
;

boundaryField
{
    fuel
    {
        type            fixedValue;
        value           nonuniform List<scalar> 0();
    }
    air
    {
        type            fixedValue;
        value           uniform 0;
    }
    outlet
    {
        type            inletOutlet;
        inletValue      uniform 0;
        value           nonuniform List<scalar> 5(2.67849e-06 7.82738e-07 3.8572e-08 6.53954e-10 5.33315e-12);
    }
    frontAndBack
    {
        type            empty;
    }
    procBoundary1to0
    {
        type            processor;
        value           nonuniform List<scalar> 5(4.75899e-07 5.14521e-07 5.48118e-07 5.56898e-07 5.64566e-07);
    }
    procBoundary1to3
    {
        type            processor;
        value           nonuniform List<scalar> 5(3.24212e-06 5.76497e-07 2.66562e-08 4.37372e-10 3.5351e-12);
    }
}


// ************************************************************************* //
