/*--------------------------------*- C++ -*----------------------------------*\
  =========                 |
  \\      /  F ield         | OpenFOAM: The Open Source CFD Toolbox
   \\    /   O peration     | Website:  https://openfoam.org
    \\  /    A nd           | Version:  8
     \\/     M anipulation  |
\*---------------------------------------------------------------------------*/
FoamFile
{
    version     2.0;
    format      ascii;
    class       volScalarField;
    location    "0.1";
    object      HCCOH;
}
// * * * * * * * * * * * * * * * * * * * * * * * * * * * * * * * * * * * * * //

dimensions      [0 0 0 0 0 0 0];

internalField   nonuniform List<scalar> 
25
(
9.08667e-06
1.0555e-06
2.76392e-07
3.48048e-08
2.06857e-09
9.39363e-06
1.05791e-06
2.72823e-07
3.50759e-08
2.18769e-09
9.63824e-06
1.0622e-06
2.72629e-07
3.61435e-08
2.37793e-09
9.77595e-06
1.06525e-06
2.71895e-07
3.69118e-08
2.54069e-09
9.81544e-06
1.06715e-06
2.72397e-07
3.73424e-08
2.64374e-09
)
;

boundaryField
{
    fuel
    {
        type            fixedValue;
        value           nonuniform List<scalar> 0();
    }
    air
    {
        type            fixedValue;
        value           uniform 0;
    }
    outlet
    {
        type            inletOutlet;
        inletValue      uniform 0;
        value           nonuniform List<scalar> 5(9.08667e-06 1.0555e-06 2.76392e-07 3.48048e-08 2.06857e-09);
    }
    frontAndBack
    {
        type            empty;
    }
    procBoundary1to0
    {
        type            processor;
        value           nonuniform List<scalar> 5(5.41374e-06 5.56484e-06 5.70672e-06 5.79283e-06 5.8265e-06);
    }
    procBoundary1to3
    {
        type            processor;
        value           nonuniform List<scalar> 5(9.79973e-06 1.06585e-06 2.72356e-07 3.7342e-08 2.64368e-09);
    }
}


// ************************************************************************* //
