/*--------------------------------*- C++ -*----------------------------------*\
  =========                 |
  \\      /  F ield         | OpenFOAM: The Open Source CFD Toolbox
   \\    /   O peration     | Website:  https://openfoam.org
    \\  /    A nd           | Version:  8
     \\/     M anipulation  |
\*---------------------------------------------------------------------------*/
FoamFile
{
    version     2.0;
    format      ascii;
    class       volScalarField;
    location    "0.1";
    object      HCNN;
}
// * * * * * * * * * * * * * * * * * * * * * * * * * * * * * * * * * * * * * //

dimensions      [0 0 0 0 0 0 0];

internalField   nonuniform List<scalar> 
25
(
1.00803e-11
1.11795e-12
5.61034e-14
9.60098e-16
7.8572e-18
1.04669e-11
1.11905e-12
5.41635e-14
9.08846e-16
7.38573e-18
1.0437e-11
1.09665e-12
5.19086e-14
8.62845e-16
7.00358e-18
1.04262e-11
1.08318e-12
5.03796e-14
8.30721e-16
6.72993e-18
1.03468e-11
1.07228e-12
4.9578e-14
8.13393e-16
6.57237e-18
)
;

boundaryField
{
    fuel
    {
        type            fixedValue;
        value           nonuniform List<scalar> 0();
    }
    air
    {
        type            fixedValue;
        value           uniform 0;
    }
    outlet
    {
        type            inletOutlet;
        inletValue      uniform 0;
        value           nonuniform List<scalar> 5(1.00803e-11 1.11795e-12 5.61034e-14 9.60098e-16 7.8572e-18);
    }
    frontAndBack
    {
        type            empty;
    }
    procBoundary1to0
    {
        type            processor;
        value           nonuniform List<scalar> 5(1.74754e-12 1.82114e-12 1.8432e-12 1.85473e-12 1.84412e-12);
    }
    procBoundary1to3
    {
        type            processor;
        value           nonuniform List<scalar> 5(1.01313e-11 1.05449e-12 4.88228e-14 8.01385e-16 6.47723e-18);
    }
}


// ************************************************************************* //
