/*--------------------------------*- C++ -*----------------------------------*\
  =========                 |
  \\      /  F ield         | OpenFOAM: The Open Source CFD Toolbox
   \\    /   O peration     | Website:  https://openfoam.org
    \\  /    A nd           | Version:  8
     \\/     M anipulation  |
\*---------------------------------------------------------------------------*/
FoamFile
{
    version     2.0;
    format      ascii;
    class       volScalarField;
    location    "0.1";
    object      HCNO;
}
// * * * * * * * * * * * * * * * * * * * * * * * * * * * * * * * * * * * * * //

dimensions      [0 0 0 0 0 0 0];

internalField   nonuniform List<scalar> 
25
(
1.86919e-07
2.19184e-08
1.19517e-08
3.84202e-09
4.54673e-10
1.44402e-07
1.74872e-08
1.07659e-08
3.77504e-09
4.79753e-10
1.15091e-07
1.42055e-08
9.87438e-09
3.79985e-09
5.18963e-10
9.92634e-08
1.24306e-08
9.37139e-09
3.83199e-09
5.53232e-10
9.48249e-08
1.18856e-08
9.18409e-09
3.84541e-09
5.73902e-10
)
;

boundaryField
{
    fuel
    {
        type            fixedValue;
        value           nonuniform List<scalar> 0();
    }
    air
    {
        type            fixedValue;
        value           uniform 0;
    }
    outlet
    {
        type            inletOutlet;
        inletValue      uniform 0;
        value           nonuniform List<scalar> 5(1.86919e-07 2.19184e-08 1.19517e-08 3.84202e-09 4.54673e-10);
    }
    frontAndBack
    {
        type            empty;
    }
    procBoundary1to0
    {
        type            processor;
        value           nonuniform List<scalar> 5(2.44565e-07 2.21694e-07 2.01489e-07 1.89695e-07 1.84829e-07);
    }
    procBoundary1to3
    {
        type            processor;
        value           nonuniform List<scalar> 5(9.75168e-08 1.21064e-08 9.19029e-09 3.8453e-09 5.73842e-10);
    }
}


// ************************************************************************* //
