/*--------------------------------*- C++ -*----------------------------------*\
  =========                 |
  \\      /  F ield         | OpenFOAM: The Open Source CFD Toolbox
   \\    /   O peration     | Website:  https://openfoam.org
    \\  /    A nd           | Version:  8
     \\/     M anipulation  |
\*---------------------------------------------------------------------------*/
FoamFile
{
    version     2.0;
    format      ascii;
    class       volScalarField;
    location    "0.1";
    object      HCO;
}
// * * * * * * * * * * * * * * * * * * * * * * * * * * * * * * * * * * * * * //

dimensions      [0 0 0 0 0 0 0];

internalField   nonuniform List<scalar> 
25
(
5.47488e-08
5.85621e-09
2.9074e-10
5.297e-12
6.52193e-14
4.69296e-08
4.99788e-09
2.42822e-10
4.39001e-12
5.42556e-14
4.13111e-08
4.35819e-09
2.08176e-10
3.75598e-12
4.67663e-14
3.89578e-08
4.06439e-09
1.90959e-10
3.42939e-12
4.26746e-14
3.80455e-08
3.95565e-09
1.84708e-10
3.30499e-12
4.10229e-14
)
;

boundaryField
{
    fuel
    {
        type            fixedValue;
        value           nonuniform List<scalar> 0();
    }
    air
    {
        type            fixedValue;
        value           uniform 0;
    }
    outlet
    {
        type            inletOutlet;
        inletValue      uniform 0;
        value           nonuniform List<scalar> 5(5.47488e-08 5.85621e-09 2.9074e-10 5.297e-12 6.52193e-14);
    }
    frontAndBack
    {
        type            empty;
    }
    procBoundary1to0
    {
        type            processor;
        value           nonuniform List<scalar> 5(9.95967e-09 8.9328e-09 8.14256e-09 7.78808e-09 7.63214e-09);
    }
    procBoundary1to3
    {
        type            processor;
        value           nonuniform List<scalar> 5(3.78037e-08 3.93474e-09 1.83806e-10 3.29057e-12 4.09071e-14);
    }
}


// ************************************************************************* //
