/*--------------------------------*- C++ -*----------------------------------*\
  =========                 |
  \\      /  F ield         | OpenFOAM: The Open Source CFD Toolbox
   \\    /   O peration     | Website:  https://openfoam.org
    \\  /    A nd           | Version:  8
     \\/     M anipulation  |
\*---------------------------------------------------------------------------*/
FoamFile
{
    version     2.0;
    format      ascii;
    class       volScalarField;
    location    "0.1";
    object      HO2;
}
// * * * * * * * * * * * * * * * * * * * * * * * * * * * * * * * * * * * * * //

dimensions      [0 0 0 0 0 0 0];

internalField   nonuniform List<scalar> 
25
(
1.55621e-06
4.9939e-06
1.9108e-05
2.07482e-06
1.54133e-07
1.47055e-06
4.80879e-06
1.76449e-05
1.93462e-06
1.47452e-07
1.39394e-06
4.66297e-06
1.67617e-05
1.84347e-06
1.43679e-07
1.34524e-06
4.57265e-06
1.62948e-05
1.78422e-06
1.41263e-07
1.32576e-06
4.52957e-06
1.61392e-05
1.75623e-06
1.40151e-07
)
;

boundaryField
{
    fuel
    {
        type            fixedValue;
        value           nonuniform List<scalar> 0();
    }
    air
    {
        type            fixedValue;
        value           uniform 0;
    }
    outlet
    {
        type            inletOutlet;
        inletValue      uniform 0;
        value           nonuniform List<scalar> 5(1.55621e-06 4.9939e-06 1.9108e-05 2.07482e-06 1.54133e-07);
    }
    frontAndBack
    {
        type            empty;
    }
    procBoundary1to0
    {
        type            processor;
        value           nonuniform List<scalar> 5(7.09032e-07 6.9683e-07 6.84909e-07 6.76706e-07 6.71996e-07);
    }
    procBoundary1to3
    {
        type            processor;
        value           nonuniform List<scalar> 5(1.33171e-06 4.53041e-06 1.61396e-05 1.75628e-06 1.40173e-07);
    }
}


// ************************************************************************* //
