/*--------------------------------*- C++ -*----------------------------------*\
  =========                 |
  \\      /  F ield         | OpenFOAM: The Open Source CFD Toolbox
   \\    /   O peration     | Website:  https://openfoam.org
    \\  /    A nd           | Version:  8
     \\/     M anipulation  |
\*---------------------------------------------------------------------------*/
FoamFile
{
    version     2.0;
    format      ascii;
    class       volScalarField;
    location    "0.1";
    object      N;
}
// * * * * * * * * * * * * * * * * * * * * * * * * * * * * * * * * * * * * * //

dimensions      [0 0 0 0 0 0 0];

internalField   nonuniform List<scalar> 
25
(
1.2341e-10
3.69197e-11
1.80528e-12
3.05097e-14
4.46464e-16
1.53101e-10
2.97481e-11
1.43991e-12
2.41379e-14
3.51525e-16
1.81634e-10
2.71291e-11
1.2836e-12
2.13367e-14
3.07932e-16
1.88413e-10
2.57591e-11
1.20067e-12
1.98259e-14
2.88563e-16
1.93821e-10
2.58162e-11
1.19557e-12
1.96372e-14
2.84479e-16
)
;

boundaryField
{
    fuel
    {
        type            fixedValue;
        value           nonuniform List<scalar> 0();
    }
    air
    {
        type            fixedValue;
        value           uniform 0;
    }
    outlet
    {
        type            inletOutlet;
        inletValue      uniform 0;
        value           nonuniform List<scalar> 5(1.2341e-10 3.69197e-11 1.80528e-12 3.05097e-14 4.46464e-16);
    }
    frontAndBack
    {
        type            empty;
    }
    procBoundary1to0
    {
        type            processor;
        value           nonuniform List<scalar> 5(2.25633e-11 2.73819e-11 3.20372e-11 3.36669e-11 3.47734e-11);
    }
    procBoundary1to3
    {
        type            processor;
        value           nonuniform List<scalar> 5(2.0813e-10 2.69906e-11 1.24536e-12 2.04294e-14 2.89941e-16);
    }
}


// ************************************************************************* //
