/*--------------------------------*- C++ -*----------------------------------*\
  =========                 |
  \\      /  F ield         | OpenFOAM: The Open Source CFD Toolbox
   \\    /   O peration     | Website:  https://openfoam.org
    \\  /    A nd           | Version:  8
     \\/     M anipulation  |
\*---------------------------------------------------------------------------*/
FoamFile
{
    version     2.0;
    format      ascii;
    class       volScalarField;
    location    "0.1";
    object      NH2;
}
// * * * * * * * * * * * * * * * * * * * * * * * * * * * * * * * * * * * * * //

dimensions      [0 0 0 0 0 0 0];

internalField   nonuniform List<scalar> 
25
(
1.21817e-08
1.5741e-09
1.06558e-09
2.55509e-10
2.12129e-11
1.29528e-08
1.62571e-09
1.13589e-09
2.66333e-10
2.32513e-11
1.35005e-08
1.66162e-09
1.19473e-09
2.83057e-10
2.60757e-11
1.33512e-08
1.65061e-09
1.24444e-09
2.97165e-10
2.85985e-11
1.33999e-08
1.6589e-09
1.26829e-09
3.05014e-10
3.02335e-11
)
;

boundaryField
{
    fuel
    {
        type            fixedValue;
        value           nonuniform List<scalar> 0();
    }
    air
    {
        type            fixedValue;
        value           uniform 0;
    }
    outlet
    {
        type            inletOutlet;
        inletValue      uniform 0;
        value           nonuniform List<scalar> 5(1.21817e-08 1.5741e-09 1.06558e-09 2.55509e-10 2.12129e-11);
    }
    frontAndBack
    {
        type            empty;
    }
    procBoundary1to0
    {
        type            processor;
        value           nonuniform List<scalar> 5(2.15649e-09 2.29763e-09 2.4053e-09 2.41083e-09 2.42715e-09);
    }
    procBoundary1to3
    {
        type            processor;
        value           nonuniform List<scalar> 5(1.39238e-08 1.70187e-09 1.26975e-09 3.04971e-10 3.02252e-11);
    }
}


// ************************************************************************* //
