/*--------------------------------*- C++ -*----------------------------------*\
  =========                 |
  \\      /  F ield         | OpenFOAM: The Open Source CFD Toolbox
   \\    /   O peration     | Website:  https://openfoam.org
    \\  /    A nd           | Version:  8
     \\/     M anipulation  |
\*---------------------------------------------------------------------------*/
FoamFile
{
    version     2.0;
    format      ascii;
    class       volScalarField;
    location    "0.1";
    object      NNH;
}
// * * * * * * * * * * * * * * * * * * * * * * * * * * * * * * * * * * * * * //

dimensions      [0 0 0 0 0 0 0];

internalField   nonuniform List<scalar> 
25
(
1.05383e-10
3.73078e-11
1.83048e-12
3.0966e-14
2.52253e-16
1.15775e-10
3.11639e-11
1.50028e-12
2.50746e-14
2.03523e-16
1.24936e-10
2.7174e-11
1.28616e-12
2.13643e-14
1.73412e-16
1.26487e-10
2.54215e-11
1.18456e-12
1.9544e-14
1.58396e-16
1.2825e-10
2.51018e-11
1.16206e-12
1.9073e-14
1.54155e-16
)
;

boundaryField
{
    fuel
    {
        type            fixedValue;
        value           nonuniform List<scalar> 0();
    }
    air
    {
        type            fixedValue;
        value           uniform 0;
    }
    outlet
    {
        type            inletOutlet;
        inletValue      uniform 0;
        value           nonuniform List<scalar> 5(1.05383e-10 3.73078e-11 1.83048e-12 3.0966e-14 2.52253e-16);
    }
    frontAndBack
    {
        type            empty;
    }
    procBoundary1to0
    {
        type            processor;
        value           nonuniform List<scalar> 5(1.86677e-11 2.04853e-11 2.21253e-11 2.26577e-11 2.30388e-11);
    }
    procBoundary1to3
    {
        type            processor;
        value           nonuniform List<scalar> 5(1.33337e-10 2.5522e-11 1.17991e-12 1.93575e-14 1.56407e-16);
    }
}


// ************************************************************************* //
