/*--------------------------------*- C++ -*----------------------------------*\
  =========                 |
  \\      /  F ield         | OpenFOAM: The Open Source CFD Toolbox
   \\    /   O peration     | Website:  https://openfoam.org
    \\  /    A nd           | Version:  8
     \\/     M anipulation  |
\*---------------------------------------------------------------------------*/
FoamFile
{
    version     2.0;
    format      ascii;
    class       volVectorField;
    location    "0.1";
    object      U;
}
// * * * * * * * * * * * * * * * * * * * * * * * * * * * * * * * * * * * * * //

dimensions      [0 1 -1 0 0 0 0];

internalField   nonuniform List<vector> 
25
(
(-0.159923 -0.334933 0)
(-0.160193 -0.320817 0)
(-0.10697 -0.234866 0)
(-0.0987801 -0.133728 0)
(-0.101836 -0.0492045 0)
(-0.176179 -0.256135 0)
(-0.178113 -0.224829 0)
(-0.111677 -0.150423 0)
(-0.100562 -0.0841763 0)
(-0.102635 -0.0328299 0)
(-0.18454 -0.190387 0)
(-0.186143 -0.163972 0)
(-0.113955 -0.113655 0)
(-0.0996595 -0.0626411 0)
(-0.102553 -0.0224474 0)
(-0.188418 -0.114045 0)
(-0.188131 -0.0964804 0)
(-0.117779 -0.067108 0)
(-0.0997295 -0.0358461 0)
(-0.102584 -0.0129729 0)
(-0.189414 -0.0380227 0)
(-0.187721 -0.0319637 3.60228e-29)
(-0.119534 -0.0223873 0)
(-0.10201 -0.0135561 -2.37832e-29)
(-0.10167 -0.00366291 0)
)
;

boundaryField
{
    fuel
    {
        type            fixedValue;
        value           nonuniform List<vector> 0();
    }
    air
    {
        type            fixedValue;
        value           uniform (-0.1 0 0);
    }
    outlet
    {
        type            pressureInletOutletVelocity;
        value           nonuniform List<vector> 5((-0.159923 -0.334933 0) (-0.160193 -0.320817 0) (-0.10697 -0.234866 0) (-0.0987801 -0.133728 0) (-0.101836 -0.0492045 0));
    }
    frontAndBack
    {
        type            empty;
    }
    procBoundary1to0
    {
        type            processor;
        value           nonuniform List<vector> 5((-0.0970713 -0.35074 0) (-0.0960218 -0.261779 0) (-0.0973593 -0.19591 0) (-0.0998722 -0.117017 0) (-0.100085 -0.0392623 0));
    }
    procBoundary1to3
    {
        type            processor;
        value           nonuniform List<vector> 5((-0.189415 0.0380466 0) (-0.187744 0.031985 3.60233e-29) (-0.119541 0.0223968 0) (-0.102012 0.0135574 -2.37837e-29) (-0.101671 0.0036628 0));
    }
}


// ************************************************************************* //
