/*--------------------------------*- C++ -*----------------------------------*\
  =========                 |
  \\      /  F ield         | OpenFOAM: The Open Source CFD Toolbox
   \\    /   O peration     | Website:  https://openfoam.org
    \\  /    A nd           | Version:  8
     \\/     M anipulation  |
\*---------------------------------------------------------------------------*/
FoamFile
{
    version     2.0;
    format      ascii;
    class       volScalarField;
    location    "0.2";
    object      C;
}
// * * * * * * * * * * * * * * * * * * * * * * * * * * * * * * * * * * * * * //

dimensions      [0 0 0 0 0 0 0];

internalField   nonuniform List<scalar> 
25
(
2.38602e-10
2.64021e-11
1.21445e-12
1.8526e-14
1.44623e-16
2.82498e-10
2.95971e-11
1.2984e-12
1.93189e-14
1.49595e-16
3.22567e-10
3.26653e-11
1.37907e-12
2.0154e-14
1.55538e-16
3.49246e-10
3.47649e-11
1.42854e-12
2.05625e-14
1.58041e-16
3.59784e-10
3.56944e-11
1.45337e-12
2.07163e-14
1.58421e-16
)
;

boundaryField
{
    fuel
    {
        type            fixedValue;
        value           nonuniform List<scalar> 0();
    }
    air
    {
        type            fixedValue;
        value           uniform 0;
    }
    outlet
    {
        type            inletOutlet;
        inletValue      uniform 0;
        value           nonuniform List<scalar> 5(2.38602e-10 2.64021e-11 1.21445e-12 1.8526e-14 1.44623e-16);
    }
    frontAndBack
    {
        type            empty;
    }
    procBoundary1to0
    {
        type            processor;
        value           nonuniform List<scalar> 5(4.56347e-11 5.33107e-11 6.0737e-11 6.58148e-11 6.79098e-11);
    }
    procBoundary1to3
    {
        type            processor;
        value           nonuniform List<scalar> 5(3.59772e-10 3.56935e-11 1.45335e-12 2.0716e-14 1.58419e-16);
    }
}


// ************************************************************************* //
