/*--------------------------------*- C++ -*----------------------------------*\
  =========                 |
  \\      /  F ield         | OpenFOAM: The Open Source CFD Toolbox
   \\    /   O peration     | Website:  https://openfoam.org
    \\  /    A nd           | Version:  8
     \\/     M anipulation  |
\*---------------------------------------------------------------------------*/
FoamFile
{
    version     2.0;
    format      ascii;
    class       volScalarField;
    location    "0.2";
    object      C2H5;
}
// * * * * * * * * * * * * * * * * * * * * * * * * * * * * * * * * * * * * * //

dimensions      [0 0 0 0 0 0 0];

internalField   nonuniform List<scalar> 
25
(
3.15792e-07
3.20639e-08
1.40877e-09
2.43604e-11
3.3798e-13
2.43275e-07
2.48265e-08
1.0668e-09
1.88721e-11
2.70031e-13
1.91125e-07
1.94243e-08
8.18034e-10
1.49683e-11
2.22631e-13
1.67693e-07
1.68623e-08
6.94601e-10
1.29988e-11
1.96657e-13
1.59727e-07
1.59718e-08
6.52361e-10
1.23139e-11
1.86281e-13
)
;

boundaryField
{
    fuel
    {
        type            fixedValue;
        value           nonuniform List<scalar> 0();
    }
    air
    {
        type            fixedValue;
        value           uniform 0;
    }
    outlet
    {
        type            inletOutlet;
        inletValue      uniform 0;
        value           nonuniform List<scalar> 5(3.15792e-07 3.20639e-08 1.40877e-09 2.43604e-11 3.3798e-13);
    }
    frontAndBack
    {
        type            empty;
    }
    procBoundary1to0
    {
        type            processor;
        value           nonuniform List<scalar> 5(8.91024e-08 8.48321e-08 7.961e-08 7.72259e-08 7.63e-08);
    }
    procBoundary1to3
    {
        type            processor;
        value           nonuniform List<scalar> 5(1.59737e-07 1.59727e-08 6.52403e-10 1.23146e-11 1.86289e-13);
    }
}


// ************************************************************************* //
