/*--------------------------------*- C++ -*----------------------------------*\
  =========                 |
  \\      /  F ield         | OpenFOAM: The Open Source CFD Toolbox
   \\    /   O peration     | Website:  https://openfoam.org
    \\  /    A nd           | Version:  8
     \\/     M anipulation  |
\*---------------------------------------------------------------------------*/
FoamFile
{
    version     2.0;
    format      ascii;
    class       volScalarField;
    location    "0.2";
    object      C3H7;
}
// * * * * * * * * * * * * * * * * * * * * * * * * * * * * * * * * * * * * * //

dimensions      [0 0 0 0 0 0 0];

internalField   nonuniform List<scalar> 
25
(
6.92015e-11
6.92321e-12
5.57211e-13
8.94982e-13
7.26531e-14
4.54176e-11
4.71322e-12
4.52062e-13
8.05344e-13
6.60114e-14
3.24801e-11
3.40348e-12
4.41844e-13
7.40253e-13
6.1088e-14
2.78761e-11
2.96285e-12
8.45138e-13
6.97561e-13
5.75658e-14
2.65171e-11
2.82073e-12
8.9692e-13
6.7817e-13
5.58433e-14
)
;

boundaryField
{
    fuel
    {
        type            fixedValue;
        value           nonuniform List<scalar> 0();
    }
    air
    {
        type            fixedValue;
        value           uniform 0;
    }
    outlet
    {
        type            inletOutlet;
        inletValue      uniform 0;
        value           nonuniform List<scalar> 5(6.92015e-11 6.92321e-12 5.57211e-13 8.94982e-13 7.26531e-14);
    }
    frontAndBack
    {
        type            empty;
    }
    procBoundary1to0
    {
        type            processor;
        value           nonuniform List<scalar> 5(8.30146e-11 6.01898e-11 5.89055e-11 5.86809e-11 5.85826e-11);
    }
    procBoundary1to3
    {
        type            processor;
        value           nonuniform List<scalar> 5(2.65182e-11 2.82084e-12 8.96891e-13 6.77893e-13 5.57981e-14);
    }
}


// ************************************************************************* //
