/*--------------------------------*- C++ -*----------------------------------*\
  =========                 |
  \\      /  F ield         | OpenFOAM: The Open Source CFD Toolbox
   \\    /   O peration     | Website:  https://openfoam.org
    \\  /    A nd           | Version:  8
     \\/     M anipulation  |
\*---------------------------------------------------------------------------*/
FoamFile
{
    version     2.0;
    format      ascii;
    class       volScalarField;
    location    "0.2";
    object      CH2OH;
}
// * * * * * * * * * * * * * * * * * * * * * * * * * * * * * * * * * * * * * //

dimensions      [0 0 0 0 0 0 0];

internalField   nonuniform List<scalar> 
25
(
2.84646e-08
2.99463e-09
1.34033e-10
2.02518e-12
1.59944e-14
2.6748e-08
2.75842e-09
1.19509e-10
1.7732e-12
1.39075e-14
2.54225e-08
2.57543e-09
1.08429e-10
1.58735e-12
1.24045e-14
2.49984e-08
2.49867e-09
1.02745e-10
1.48301e-12
1.15121e-14
2.48744e-08
2.47614e-09
1.00931e-10
1.44266e-12
1.11303e-14
)
;

boundaryField
{
    fuel
    {
        type            fixedValue;
        value           nonuniform List<scalar> 0();
    }
    air
    {
        type            fixedValue;
        value           uniform 0;
    }
    outlet
    {
        type            inletOutlet;
        inletValue      uniform 0;
        value           nonuniform List<scalar> 5(2.84646e-08 2.99463e-09 1.34033e-10 2.02518e-12 1.59944e-14);
    }
    frontAndBack
    {
        type            empty;
    }
    procBoundary1to0
    {
        type            processor;
        value           nonuniform List<scalar> 5(5.13188e-09 4.93467e-09 4.77504e-09 4.72765e-09 4.71132e-09);
    }
    procBoundary1to3
    {
        type            processor;
        value           nonuniform List<scalar> 5(2.48746e-08 2.47616e-09 1.00933e-10 1.44269e-12 1.11305e-14);
    }
}


// ************************************************************************* //
