/*--------------------------------*- C++ -*----------------------------------*\
  =========                 |
  \\      /  F ield         | OpenFOAM: The Open Source CFD Toolbox
   \\    /   O peration     | Website:  https://openfoam.org
    \\  /    A nd           | Version:  8
     \\/     M anipulation  |
\*---------------------------------------------------------------------------*/
FoamFile
{
    version     2.0;
    format      ascii;
    class       volScalarField;
    location    "0.2";
    object      CH3O;
}
// * * * * * * * * * * * * * * * * * * * * * * * * * * * * * * * * * * * * * //

dimensions      [0 0 0 0 0 0 0];

internalField   nonuniform List<scalar> 
25
(
1.97665e-09
3.05284e-10
5.09138e-10
1.10228e-09
1.80537e-11
1.61393e-09
2.64538e-10
4.77992e-10
9.26256e-10
1.52145e-11
1.3579e-09
2.28983e-10
4.73623e-10
8.00229e-10
1.31502e-11
1.25002e-09
1.53113e-10
1.09887e-10
7.21089e-10
1.18341e-11
1.2186e-09
1.41754e-10
9.48896e-11
6.87293e-10
1.12297e-11
)
;

boundaryField
{
    fuel
    {
        type            fixedValue;
        value           nonuniform List<scalar> 0();
    }
    air
    {
        type            fixedValue;
        value           uniform 0;
    }
    outlet
    {
        type            inletOutlet;
        inletValue      uniform 0;
        value           nonuniform List<scalar> 5(1.97665e-09 3.05284e-10 5.09138e-10 1.10228e-09 1.80537e-11);
    }
    frontAndBack
    {
        type            empty;
    }
    procBoundary1to0
    {
        type            processor;
        value           nonuniform List<scalar> 5(1.68178e-09 1.96923e-09 1.97947e-09 1.9951e-09 2.0029e-09);
    }
    procBoundary1to3
    {
        type            processor;
        value           nonuniform List<scalar> 5(1.21843e-09 1.41521e-10 9.48872e-11 6.87339e-10 1.12303e-11);
    }
}


// ************************************************************************* //
