/*--------------------------------*- C++ -*----------------------------------*\
  =========                 |
  \\      /  F ield         | OpenFOAM: The Open Source CFD Toolbox
   \\    /   O peration     | Website:  https://openfoam.org
    \\  /    A nd           | Version:  8
     \\/     M anipulation  |
\*---------------------------------------------------------------------------*/
FoamFile
{
    version     2.0;
    format      ascii;
    class       volScalarField;
    location    "0.2";
    object      CN;
}
// * * * * * * * * * * * * * * * * * * * * * * * * * * * * * * * * * * * * * //

dimensions      [0 0 0 0 0 0 0];

internalField   nonuniform List<scalar> 
25
(
1.01977e-10
1.1397e-11
5.273e-13
8.06881e-15
6.30726e-17
1.24607e-10
1.32086e-11
5.83267e-13
8.70786e-15
6.75266e-17
1.52105e-10
1.54817e-11
6.55704e-13
9.59904e-15
7.41221e-17
1.74611e-10
1.73764e-11
7.14136e-13
1.02817e-14
7.90312e-17
1.85086e-10
1.83316e-11
7.45827e-13
1.0628e-14
8.12581e-17
)
;

boundaryField
{
    fuel
    {
        type            fixedValue;
        value           nonuniform List<scalar> 0();
    }
    air
    {
        type            fixedValue;
        value           uniform 0;
    }
    outlet
    {
        type            inletOutlet;
        inletValue      uniform 0;
        value           nonuniform List<scalar> 5(1.01977e-10 1.1397e-11 5.273e-13 8.06881e-15 6.30726e-17);
    }
    frontAndBack
    {
        type            empty;
    }
    procBoundary1to0
    {
        type            processor;
        value           nonuniform List<scalar> 5(1.97767e-11 2.38958e-11 2.88698e-11 3.29415e-11 3.49031e-11);
    }
    procBoundary1to3
    {
        type            processor;
        value           nonuniform List<scalar> 5(1.85073e-10 1.83306e-11 7.45791e-13 1.06276e-14 8.12545e-17);
    }
}


// ************************************************************************* //
