/*--------------------------------*- C++ -*----------------------------------*\
  =========                 |
  \\      /  F ield         | OpenFOAM: The Open Source CFD Toolbox
   \\    /   O peration     | Website:  https://openfoam.org
    \\  /    A nd           | Version:  8
     \\/     M anipulation  |
\*---------------------------------------------------------------------------*/
FoamFile
{
    version     2.0;
    format      ascii;
    class       volScalarField;
    location    "0.2";
    object      CO;
}
// * * * * * * * * * * * * * * * * * * * * * * * * * * * * * * * * * * * * * //

dimensions      [0 0 0 0 0 0 0];

internalField   nonuniform List<scalar> 
25
(
0.0528906
0.00610388
0.00176605
0.000274189
2.21263e-05
0.0532051
0.00594908
0.0016918
0.000262201
2.12311e-05
0.0536117
0.00584426
0.00163427
0.000254416
2.06103e-05
0.0538895
0.0057931
0.00159319
0.000246919
2.00026e-05
0.0540189
0.00578257
0.00157906
0.000241242
1.9534e-05
)
;

boundaryField
{
    fuel
    {
        type            fixedValue;
        value           nonuniform List<scalar> 0();
    }
    air
    {
        type            fixedValue;
        value           uniform 0;
    }
    outlet
    {
        type            inletOutlet;
        inletValue      uniform 0;
        value           nonuniform List<scalar> 5(0.0528906 0.00610388 0.00176605 0.000274189 2.21263e-05);
    }
    frontAndBack
    {
        type            empty;
    }
    procBoundary1to0
    {
        type            processor;
        value           nonuniform List<scalar> 5(0.0465327 0.0466899 0.0469197 0.0470916 0.0471739);
    }
    procBoundary1to3
    {
        type            processor;
        value           nonuniform List<scalar> 5(0.0540187 0.00578258 0.00157907 0.000241243 1.95341e-05);
    }
}


// ************************************************************************* //
