/*--------------------------------*- C++ -*----------------------------------*\
  =========                 |
  \\      /  F ield         | OpenFOAM: The Open Source CFD Toolbox
   \\    /   O peration     | Website:  https://openfoam.org
    \\  /    A nd           | Version:  8
     \\/     M anipulation  |
\*---------------------------------------------------------------------------*/
FoamFile
{
    version     2.0;
    format      ascii;
    class       volScalarField;
    location    "0.2";
    object      H2O;
}
// * * * * * * * * * * * * * * * * * * * * * * * * * * * * * * * * * * * * * //

dimensions      [0 0 0 0 0 0 0];

internalField   nonuniform List<scalar> 
25
(
0.11005
0.0717122
0.020625
0.00321747
0.000262292
0.109249
0.0692379
0.0196353
0.00306144
0.000250529
0.108606
0.0672286
0.0188211
0.00295296
0.00024189
0.108224
0.0660902
0.0182353
0.00285215
0.000233689
0.108087
0.0657206
0.0180186
0.00277923
0.000227631
)
;

boundaryField
{
    fuel
    {
        type            fixedValue;
        value           nonuniform List<scalar> 0();
    }
    air
    {
        type            fixedValue;
        value           uniform 0;
    }
    outlet
    {
        type            inletOutlet;
        inletValue      uniform 0;
        value           nonuniform List<scalar> 5(0.11005 0.0717122 0.020625 0.00321747 0.000262292);
    }
    frontAndBack
    {
        type            empty;
    }
    procBoundary1to0
    {
        type            processor;
        value           nonuniform List<scalar> 5(0.0961578 0.0957606 0.0954238 0.0952037 0.0950936);
    }
    procBoundary1to3
    {
        type            processor;
        value           nonuniform List<scalar> 5(0.108087 0.0657211 0.0180187 0.00277925 0.000227631);
    }
}


// ************************************************************************* //
