/*--------------------------------*- C++ -*----------------------------------*\
  =========                 |
  \\      /  F ield         | OpenFOAM: The Open Source CFD Toolbox
   \\    /   O peration     | Website:  https://openfoam.org
    \\  /    A nd           | Version:  8
     \\/     M anipulation  |
\*---------------------------------------------------------------------------*/
FoamFile
{
    version     2.0;
    format      ascii;
    class       volScalarField;
    location    "0.2";
    object      HCNO;
}
// * * * * * * * * * * * * * * * * * * * * * * * * * * * * * * * * * * * * * //

dimensions      [0 0 0 0 0 0 0];

internalField   nonuniform List<scalar> 
25
(
3.84524e-08
4.23386e-09
1.3333e-09
2.4751e-10
2.82762e-11
3.14925e-08
3.54633e-09
1.15833e-09
2.24487e-10
2.64816e-11
2.76229e-08
3.13413e-09
1.02593e-09
2.07409e-10
2.50866e-11
2.64973e-08
2.99327e-09
9.42463e-10
1.94425e-10
2.39537e-11
2.62294e-08
2.95787e-09
9.14137e-10
1.86973e-10
2.32422e-11
)
;

boundaryField
{
    fuel
    {
        type            fixedValue;
        value           nonuniform List<scalar> 0();
    }
    air
    {
        type            fixedValue;
        value           uniform 0;
    }
    outlet
    {
        type            inletOutlet;
        inletValue      uniform 0;
        value           nonuniform List<scalar> 5(3.84524e-08 4.23386e-09 1.3333e-09 2.4751e-10 2.82762e-11);
    }
    frontAndBack
    {
        type            empty;
    }
    procBoundary1to0
    {
        type            processor;
        value           nonuniform List<scalar> 5(4.25393e-08 3.91786e-08 3.6525e-08 3.52665e-08 3.47855e-08);
    }
    procBoundary1to3
    {
        type            processor;
        value           nonuniform List<scalar> 5(2.62295e-08 2.95787e-09 9.14154e-10 1.86983e-10 2.32435e-11);
    }
}


// ************************************************************************* //
