/*--------------------------------*- C++ -*----------------------------------*\
  =========                 |
  \\      /  F ield         | OpenFOAM: The Open Source CFD Toolbox
   \\    /   O peration     | Website:  https://openfoam.org
    \\  /    A nd           | Version:  8
     \\/     M anipulation  |
\*---------------------------------------------------------------------------*/
FoamFile
{
    version     2.0;
    format      ascii;
    class       volScalarField;
    location    "0.2";
    object      HNCO;
}
// * * * * * * * * * * * * * * * * * * * * * * * * * * * * * * * * * * * * * //

dimensions      [0 0 0 0 0 0 0];

internalField   nonuniform List<scalar> 
25
(
4.03989e-07
4.49646e-08
1.30846e-08
2.17904e-09
2.05295e-10
3.80725e-07
4.19219e-08
1.2217e-08
2.05161e-09
1.95186e-10
3.71996e-07
4.04217e-08
1.16115e-08
1.96825e-09
1.88002e-10
3.74309e-07
4.03167e-08
1.12663e-08
1.9005e-09
1.81866e-10
3.77069e-07
4.05341e-08
1.11817e-08
1.85499e-09
1.77574e-10
)
;

boundaryField
{
    fuel
    {
        type            fixedValue;
        value           nonuniform List<scalar> 0();
    }
    air
    {
        type            fixedValue;
        value           uniform 0;
    }
    outlet
    {
        type            inletOutlet;
        inletValue      uniform 0;
        value           nonuniform List<scalar> 5(4.03989e-07 4.49646e-08 1.30846e-08 2.17904e-09 2.05295e-10);
    }
    frontAndBack
    {
        type            empty;
    }
    procBoundary1to0
    {
        type            processor;
        value           nonuniform List<scalar> 5(3.40728e-07 3.30581e-07 3.26245e-07 3.26459e-07 3.27458e-07);
    }
    procBoundary1to3
    {
        type            processor;
        value           nonuniform List<scalar> 5(3.77063e-07 4.05335e-08 1.11817e-08 1.85502e-09 1.77577e-10);
    }
}


// ************************************************************************* //
