/*--------------------------------*- C++ -*----------------------------------*\
  =========                 |
  \\      /  F ield         | OpenFOAM: The Open Source CFD Toolbox
   \\    /   O peration     | Website:  https://openfoam.org
    \\  /    A nd           | Version:  8
     \\/     M anipulation  |
\*---------------------------------------------------------------------------*/
FoamFile
{
    version     2.0;
    format      ascii;
    class       volScalarField;
    location    "0.2";
    object      HOCN;
}
// * * * * * * * * * * * * * * * * * * * * * * * * * * * * * * * * * * * * * //

dimensions      [0 0 0 0 0 0 0];

internalField   nonuniform List<scalar> 
25
(
2.63031e-09
3.11929e-10
9.74832e-11
1.54991e-11
1.26069e-12
3.07869e-09
3.52626e-10
1.03714e-10
1.60347e-11
1.29339e-12
3.56905e-09
4.04835e-10
1.11939e-10
1.68897e-11
1.34573e-12
3.93986e-09
4.49287e-10
1.18362e-10
1.74345e-11
1.37885e-12
4.11196e-09
4.71976e-10
1.22224e-10
1.76136e-11
1.38698e-12
)
;

boundaryField
{
    fuel
    {
        type            fixedValue;
        value           nonuniform List<scalar> 0();
    }
    air
    {
        type            fixedValue;
        value           uniform 0;
    }
    outlet
    {
        type            inletOutlet;
        inletValue      uniform 0;
        value           nonuniform List<scalar> 5(2.63031e-09 3.11929e-10 9.74832e-11 1.54991e-11 1.26069e-12);
    }
    frontAndBack
    {
        type            empty;
    }
    procBoundary1to0
    {
        type            processor;
        value           nonuniform List<scalar> 5(1.95349e-09 2.21669e-09 2.47203e-09 2.66667e-09 2.76629e-09);
    }
    procBoundary1to3
    {
        type            processor;
        value           nonuniform List<scalar> 5(4.11174e-09 4.71947e-10 1.22218e-10 1.7613e-11 1.38691e-12);
    }
}


// ************************************************************************* //
