/*--------------------------------*- C++ -*----------------------------------*\
  =========                 |
  \\      /  F ield         | OpenFOAM: The Open Source CFD Toolbox
   \\    /   O peration     | Website:  https://openfoam.org
    \\  /    A nd           | Version:  8
     \\/     M anipulation  |
\*---------------------------------------------------------------------------*/
FoamFile
{
    version     2.0;
    format      ascii;
    class       volScalarField;
    location    "0.2";
    object      NH3;
}
// * * * * * * * * * * * * * * * * * * * * * * * * * * * * * * * * * * * * * //

dimensions      [0 0 0 0 0 0 0];

internalField   nonuniform List<scalar> 
25
(
2.45038e-06
2.73453e-07
7.63127e-08
1.19772e-08
1.01649e-09
2.41009e-06
2.62303e-07
7.22799e-08
1.13634e-08
9.69021e-10
2.38355e-06
2.53829e-07
6.89936e-08
1.09308e-08
9.33581e-10
2.37728e-06
2.49765e-07
6.66246e-08
1.05352e-08
9.00492e-10
2.38034e-06
2.48923e-07
6.58155e-08
1.02598e-08
8.7671e-10
)
;

boundaryField
{
    fuel
    {
        type            fixedValue;
        value           nonuniform List<scalar> 0();
    }
    air
    {
        type            fixedValue;
        value           uniform 0;
    }
    outlet
    {
        type            inletOutlet;
        inletValue      uniform 0;
        value           nonuniform List<scalar> 5(2.45038e-06 2.73453e-07 7.63127e-08 1.19772e-08 1.01649e-09);
    }
    frontAndBack
    {
        type            empty;
    }
    procBoundary1to0
    {
        type            processor;
        value           nonuniform List<scalar> 5(2.1359e-06 2.11777e-06 2.10472e-06 2.09964e-06 2.09917e-06);
    }
    procBoundary1to3
    {
        type            processor;
        value           nonuniform List<scalar> 5(2.38032e-06 2.48922e-07 6.58155e-08 1.02598e-08 8.76704e-10);
    }
}


// ************************************************************************* //
