/*--------------------------------*- C++ -*----------------------------------*\
  =========                 |
  \\      /  F ield         | OpenFOAM: The Open Source CFD Toolbox
   \\    /   O peration     | Website:  https://openfoam.org
    \\  /    A nd           | Version:  8
     \\/     M anipulation  |
\*---------------------------------------------------------------------------*/
FoamFile
{
    version     2.0;
    format      ascii;
    class       volScalarField;
    location    "0.2";
    object      O;
}
// * * * * * * * * * * * * * * * * * * * * * * * * * * * * * * * * * * * * * //

dimensions      [0 0 0 0 0 0 0];

internalField   nonuniform List<scalar> 
25
(
8.01684e-06
3.56721e-05
1.58785e-06
2.88014e-08
1.06857e-09
7.47982e-06
3.1327e-05
1.35545e-06
2.49155e-08
9.5881e-10
6.96736e-06
2.83331e-05
1.19275e-06
2.22757e-08
8.85002e-10
6.69165e-06
2.69456e-05
1.10891e-06
2.09156e-08
8.48061e-10
6.59249e-06
2.65281e-05
1.0822e-06
2.05052e-08
8.38614e-10
)
;

boundaryField
{
    fuel
    {
        type            fixedValue;
        value           nonuniform List<scalar> 0();
    }
    air
    {
        type            fixedValue;
        value           uniform 0;
    }
    outlet
    {
        type            inletOutlet;
        inletValue      uniform 0;
        value           nonuniform List<scalar> 5(8.01684e-06 3.56721e-05 1.58785e-06 2.88014e-08 1.06857e-09);
    }
    frontAndBack
    {
        type            empty;
    }
    procBoundary1to0
    {
        type            processor;
        value           nonuniform List<scalar> 5(1.44446e-06 1.37801e-06 1.30886e-06 1.26928e-06 1.25274e-06);
    }
    procBoundary1to3
    {
        type            processor;
        value           nonuniform List<scalar> 5(6.59258e-06 2.65287e-05 1.08223e-06 2.05057e-08 8.38635e-10);
    }
}


// ************************************************************************* //
