/*--------------------------------*- C++ -*----------------------------------*\
  =========                 |
  \\      /  F ield         | OpenFOAM: The Open Source CFD Toolbox
   \\    /   O peration     | Website:  https://openfoam.org
    \\  /    A nd           | Version:  8
     \\/     M anipulation  |
\*---------------------------------------------------------------------------*/
FoamFile
{
    version     2.0;
    format      ascii;
    class       volScalarField;
    location    "0.2";
    object      OH;
}
// * * * * * * * * * * * * * * * * * * * * * * * * * * * * * * * * * * * * * //

dimensions      [0 0 0 0 0 0 0];

internalField   nonuniform List<scalar> 
25
(
9.90481e-05
0.000403011
1.79104e-05
2.81744e-07
6.54746e-09
9.30369e-05
0.00035028
1.51287e-05
2.36591e-07
5.73534e-09
8.70021e-05
0.000310553
1.30615e-05
2.03935e-07
5.13837e-09
8.36264e-05
0.000290318
1.1945e-05
1.85766e-07
4.80639e-09
8.23615e-05
0.000283695
1.1573e-05
1.79287e-07
4.70037e-09
)
;

boundaryField
{
    fuel
    {
        type            fixedValue;
        value           nonuniform List<scalar> 0();
    }
    air
    {
        type            fixedValue;
        value           uniform 0;
    }
    outlet
    {
        type            inletOutlet;
        inletValue      uniform 0;
        value           nonuniform List<scalar> 5(9.90481e-05 0.000403011 1.79104e-05 2.81744e-07 6.54746e-09);
    }
    frontAndBack
    {
        type            empty;
    }
    procBoundary1to0
    {
        type            processor;
        value           nonuniform List<scalar> 5(1.78565e-05 1.71247e-05 1.63203e-05 1.58396e-05 1.56301e-05);
    }
    procBoundary1to3
    {
        type            processor;
        value           nonuniform List<scalar> 5(8.23626e-05 0.000283704 1.15734e-05 1.79294e-07 4.70051e-09);
    }
}


// ************************************************************************* //
