/*--------------------------------*- C++ -*----------------------------------*\
  =========                 |
  \\      /  F ield         | OpenFOAM: The Open Source CFD Toolbox
   \\    /   O peration     | Website:  https://openfoam.org
    \\  /    A nd           | Version:  8
     \\/     M anipulation  |
\*---------------------------------------------------------------------------*/
FoamFile
{
    version     2.0;
    format      ascii;
    class       volScalarField;
    location    "0.2";
    object      T;
}
// * * * * * * * * * * * * * * * * * * * * * * * * * * * * * * * * * * * * * //

dimensions      [0 0 0 1 0 0 0];

internalField   nonuniform List<scalar> 
25
(
1678.03
1547.49
711.708
361.953
298.731
1681.15
1512.76
693.031
358.674
298.48
1683.87
1484.22
677.558
356.398
298.295
1685.47
1467.93
666.325
354.268
298.119
1686.17
1462.66
662.161
352.717
297.988
)
;

boundaryField
{
    fuel
    {
        type            fixedValue;
        value           nonuniform List<scalar> 0();
    }
    air
    {
        type            fixedValue;
        value           uniform 293;
    }
    outlet
    {
        type            inletOutlet;
        inletValue      uniform 293;
        value           nonuniform List<scalar> 5(1677.78 1547.82 711.965 362.058 298.749);
    }
    frontAndBack
    {
        type            empty;
    }
    procBoundary1to0
    {
        type            processor;
        value           nonuniform List<scalar> 5(1325.93 1325.38 1326.05 1326.55 1326.55);
    }
    procBoundary1to3
    {
        type            processor;
        value           nonuniform List<scalar> 5(1686.17 1462.67 662.163 352.717 297.988);
    }
}


// ************************************************************************* //
