/*--------------------------------*- C++ -*----------------------------------*\
  =========                 |
  \\      /  F ield         | OpenFOAM: The Open Source CFD Toolbox
   \\    /   O peration     | Website:  https://openfoam.org
    \\  /    A nd           | Version:  8
     \\/     M anipulation  |
\*---------------------------------------------------------------------------*/
FoamFile
{
    version     2.0;
    format      ascii;
    class       volScalarField;
    location    "0.1";
    object      C2H2;
}
// * * * * * * * * * * * * * * * * * * * * * * * * * * * * * * * * * * * * * //

dimensions      [0 0 0 0 0 0 0];

internalField   nonuniform List<scalar> 
25
(
0.00935987
0.00102398
0.000281367
4.1723e-05
2.99794e-06
0.00944273
0.00103492
0.000282883
4.1294e-05
2.86801e-06
0.00962665
0.00106454
0.000288692
4.06275e-05
2.66963e-06
0.00992395
0.00111425
0.000296921
3.97898e-05
2.44625e-06
0.0101879
0.00116883
0.000308805
3.99003e-05
2.31181e-06
)
;

boundaryField
{
    fuel
    {
        type            fixedValue;
        value           nonuniform List<scalar> 0();
    }
    air
    {
        type            fixedValue;
        value           uniform 0;
    }
    outlet
    {
        type            inletOutlet;
        inletValue      uniform 0;
        value           nonuniform List<scalar> 5(0.0101879 0.00116883 0.000308805 3.99003e-05 2.31181e-06);
    }
    frontAndBack
    {
        type            empty;
    }
    procBoundary3to1
    {
        type            processor;
        value           nonuniform List<scalar> 5(0.00938227 0.00102581 0.000281418 4.17227e-05 2.99794e-06);
    }
    procBoundary3to2
    {
        type            processor;
        value           nonuniform List<scalar> 5(0.00780905 0.00782522 0.00787049 0.0079372 0.00799445);
    }
}


// ************************************************************************* //
