/*--------------------------------*- C++ -*----------------------------------*\
  =========                 |
  \\      /  F ield         | OpenFOAM: The Open Source CFD Toolbox
   \\    /   O peration     | Website:  https://openfoam.org
    \\  /    A nd           | Version:  8
     \\/     M anipulation  |
\*---------------------------------------------------------------------------*/
FoamFile
{
    version     2.0;
    format      ascii;
    class       volScalarField;
    location    "0.1";
    object      C2H6;
}
// * * * * * * * * * * * * * * * * * * * * * * * * * * * * * * * * * * * * * //

dimensions      [0 0 0 0 0 0 0];

internalField   nonuniform List<scalar> 
25
(
8.63129e-05
1.01076e-05
5.52745e-06
1.72343e-06
2.21609e-07
8.86355e-05
1.04565e-05
5.78465e-06
1.84962e-06
2.39245e-07
9.75836e-05
1.15665e-05
6.33269e-06
2.05598e-06
2.66067e-07
0.000115358
1.36683e-05
7.15456e-06
2.32054e-06
2.9621e-07
0.000140961
1.64734e-05
8.14098e-06
2.61302e-06
3.25885e-07
)
;

boundaryField
{
    fuel
    {
        type            fixedValue;
        value           nonuniform List<scalar> 0();
    }
    air
    {
        type            fixedValue;
        value           uniform 0;
    }
    outlet
    {
        type            inletOutlet;
        inletValue      uniform 0;
        value           nonuniform List<scalar> 5(0.000140961 1.64734e-05 8.14098e-06 2.61302e-06 3.25885e-07);
    }
    frontAndBack
    {
        type            empty;
    }
    procBoundary3to1
    {
        type            processor;
        value           nonuniform List<scalar> 5(8.57678e-05 1.00633e-05 5.52702e-06 1.72331e-06 2.21578e-07);
    }
    procBoundary3to2
    {
        type            processor;
        value           nonuniform List<scalar> 5(0.000473885 0.00048076 0.000494215 0.000516778 0.000541197);
    }
}


// ************************************************************************* //
