/*--------------------------------*- C++ -*----------------------------------*\
  =========                 |
  \\      /  F ield         | OpenFOAM: The Open Source CFD Toolbox
   \\    /   O peration     | Website:  https://openfoam.org
    \\  /    A nd           | Version:  8
     \\/     M anipulation  |
\*---------------------------------------------------------------------------*/
FoamFile
{
    version     2.0;
    format      ascii;
    class       volScalarField;
    location    "0.1";
    object      C3H8;
}
// * * * * * * * * * * * * * * * * * * * * * * * * * * * * * * * * * * * * * //

dimensions      [0 0 0 0 0 0 0];

internalField   nonuniform List<scalar> 
25
(
2.17841e-07
2.66013e-08
1.87371e-08
6.9053e-09
9.33067e-10
2.25472e-07
2.77076e-08
1.99653e-08
7.48977e-09
1.00737e-09
2.43791e-07
3.03236e-08
2.24252e-08
8.40473e-09
1.10956e-09
2.80064e-07
3.50751e-08
2.61044e-08
9.54799e-09
1.21448e-09
3.30501e-07
4.11461e-08
3.0504e-08
1.08093e-08
1.31869e-09
)
;

boundaryField
{
    fuel
    {
        type            fixedValue;
        value           nonuniform List<scalar> 0();
    }
    air
    {
        type            fixedValue;
        value           uniform 0;
    }
    outlet
    {
        type            inletOutlet;
        inletValue      uniform 0;
        value           nonuniform List<scalar> 5(3.30501e-07 4.11461e-08 3.0504e-08 1.08093e-08 1.31869e-09);
    }
    frontAndBack
    {
        type            empty;
    }
    procBoundary3to1
    {
        type            processor;
        value           nonuniform List<scalar> 5(2.1839e-07 2.66476e-08 1.87387e-08 6.90528e-09 9.33105e-10);
    }
    procBoundary3to2
    {
        type            processor;
        value           nonuniform List<scalar> 5(1.72772e-06 1.78149e-06 1.88048e-06 2.03954e-06 2.19935e-06);
    }
}


// ************************************************************************* //
