/*--------------------------------*- C++ -*----------------------------------*\
  =========                 |
  \\      /  F ield         | OpenFOAM: The Open Source CFD Toolbox
   \\    /   O peration     | Website:  https://openfoam.org
    \\  /    A nd           | Version:  8
     \\/     M anipulation  |
\*---------------------------------------------------------------------------*/
FoamFile
{
    version     2.0;
    format      ascii;
    class       volScalarField;
    location    "0.1";
    object      CH;
}
// * * * * * * * * * * * * * * * * * * * * * * * * * * * * * * * * * * * * * //

dimensions      [0 0 0 0 0 0 0];

internalField   nonuniform List<scalar> 
25
(
1.33368e-09
1.38562e-10
6.4115e-12
1.05217e-13
8.50306e-16
1.34231e-09
1.39206e-10
6.47221e-12
1.06717e-13
8.64592e-16
1.31122e-09
1.37629e-10
6.51781e-12
1.08396e-13
8.79912e-16
1.24289e-09
1.33585e-10
6.49046e-12
1.0915e-13
8.87731e-16
1.12816e-09
1.26797e-10
6.41057e-12
1.10122e-13
9.02595e-16
)
;

boundaryField
{
    fuel
    {
        type            fixedValue;
        value           nonuniform List<scalar> 0();
    }
    air
    {
        type            fixedValue;
        value           uniform 0;
    }
    outlet
    {
        type            inletOutlet;
        inletValue      uniform 0;
        value           nonuniform List<scalar> 5(1.12816e-09 1.26797e-10 6.41057e-12 1.10122e-13 9.02595e-16);
    }
    frontAndBack
    {
        type            empty;
    }
    procBoundary3to1
    {
        type            processor;
        value           nonuniform List<scalar> 5(1.35629e-09 1.40433e-10 6.49103e-12 1.06482e-13 8.6033e-16);
    }
    procBoundary3to2
    {
        type            processor;
        value           nonuniform List<scalar> 5(2.38246e-10 2.38348e-10 2.31471e-10 2.17765e-10 1.98521e-10);
    }
}


// ************************************************************************* //
