/*--------------------------------*- C++ -*----------------------------------*\
  =========                 |
  \\      /  F ield         | OpenFOAM: The Open Source CFD Toolbox
   \\    /   O peration     | Website:  https://openfoam.org
    \\  /    A nd           | Version:  8
     \\/     M anipulation  |
\*---------------------------------------------------------------------------*/
FoamFile
{
    version     2.0;
    format      ascii;
    class       volScalarField;
    location    "0.1";
    object      CH2;
}
// * * * * * * * * * * * * * * * * * * * * * * * * * * * * * * * * * * * * * //

dimensions      [0 0 0 0 0 0 0];

internalField   nonuniform List<scalar> 
25
(
3.87316e-07
4.0028e-08
1.84921e-09
3.03372e-11
2.45466e-13
3.80462e-07
3.97219e-08
1.85089e-09
3.05471e-11
2.47981e-13
3.93184e-07
4.12099e-08
1.94834e-09
3.2369e-11
2.6308e-13
3.98914e-07
4.26776e-08
2.06446e-09
3.46231e-11
2.81767e-13
4.01243e-07
4.412e-08
2.20431e-09
3.76381e-11
3.08254e-13
)
;

boundaryField
{
    fuel
    {
        type            fixedValue;
        value           nonuniform List<scalar> 0();
    }
    air
    {
        type            fixedValue;
        value           uniform 0;
    }
    outlet
    {
        type            inletOutlet;
        inletValue      uniform 0;
        value           nonuniform List<scalar> 5(4.01243e-07 4.412e-08 2.20431e-09 3.76381e-11 3.08254e-13);
    }
    frontAndBack
    {
        type            empty;
    }
    procBoundary3to1
    {
        type            processor;
        value           nonuniform List<scalar> 5(3.74684e-07 3.89936e-08 1.80533e-09 2.96389e-11 2.39939e-13);
    }
    procBoundary3to2
    {
        type            processor;
        value           nonuniform List<scalar> 5(6.88391e-08 6.79868e-08 6.92092e-08 6.93822e-08 6.88819e-08);
    }
}


// ************************************************************************* //
