/*--------------------------------*- C++ -*----------------------------------*\
  =========                 |
  \\      /  F ield         | OpenFOAM: The Open Source CFD Toolbox
   \\    /   O peration     | Website:  https://openfoam.org
    \\  /    A nd           | Version:  8
     \\/     M anipulation  |
\*---------------------------------------------------------------------------*/
FoamFile
{
    version     2.0;
    format      ascii;
    class       volScalarField;
    location    "0.1";
    object      CH2CHO;
}
// * * * * * * * * * * * * * * * * * * * * * * * * * * * * * * * * * * * * * //

dimensions      [0 0 0 0 0 0 0];

internalField   nonuniform List<scalar> 
25
(
3.5604e-09
3.7523e-10
3.46853e-11
2.6022e-12
5.87815e-14
3.73204e-09
3.97818e-10
3.70427e-11
2.73006e-12
6.16991e-14
4.52074e-09
4.85997e-10
4.4919e-11
3.05627e-12
6.79941e-14
6.48235e-09
6.90788e-10
6.07421e-11
3.6569e-12
7.8659e-14
9.53797e-09
9.89044e-10
8.11428e-11
4.38523e-12
9.31402e-14
)
;

boundaryField
{
    fuel
    {
        type            fixedValue;
        value           nonuniform List<scalar> 0();
    }
    air
    {
        type            fixedValue;
        value           uniform 0;
    }
    outlet
    {
        type            inletOutlet;
        inletValue      uniform 0;
        value           nonuniform List<scalar> 5(9.53797e-09 9.89044e-10 8.11428e-11 4.38523e-12 9.31402e-14);
    }
    frontAndBack
    {
        type            empty;
    }
    procBoundary3to1
    {
        type            processor;
        value           nonuniform List<scalar> 5(3.53754e-09 3.73805e-10 3.46312e-11 2.60094e-12 5.87507e-14);
    }
    procBoundary3to2
    {
        type            processor;
        value           nonuniform List<scalar> 5(3.67482e-09 3.75593e-09 3.95852e-09 4.37445e-09 4.88322e-09);
    }
}


// ************************************************************************* //
