/*--------------------------------*- C++ -*----------------------------------*\
  =========                 |
  \\      /  F ield         | OpenFOAM: The Open Source CFD Toolbox
   \\    /   O peration     | Website:  https://openfoam.org
    \\  /    A nd           | Version:  8
     \\/     M anipulation  |
\*---------------------------------------------------------------------------*/
FoamFile
{
    version     2.0;
    format      ascii;
    class       volScalarField;
    location    "0.1";
    object      CH3OH;
}
// * * * * * * * * * * * * * * * * * * * * * * * * * * * * * * * * * * * * * //

dimensions      [0 0 0 0 0 0 0];

internalField   nonuniform List<scalar> 
25
(
2.83135e-06
1.69259e-06
6.35094e-06
1.21037e-06
1.10815e-07
2.84584e-06
1.73716e-06
6.52085e-06
1.24552e-06
1.12992e-07
3.10029e-06
1.84659e-06
6.93977e-06
1.30514e-06
1.16564e-07
3.49452e-06
2.01175e-06
7.6319e-06
1.38977e-06
1.2165e-07
4.01208e-06
2.1808e-06
8.49405e-06
1.50209e-06
1.28599e-07
)
;

boundaryField
{
    fuel
    {
        type            fixedValue;
        value           nonuniform List<scalar> 0();
    }
    air
    {
        type            fixedValue;
        value           uniform 0;
    }
    outlet
    {
        type            inletOutlet;
        inletValue      uniform 0;
        value           nonuniform List<scalar> 5(4.01208e-06 2.1808e-06 8.49405e-06 1.50209e-06 1.28599e-07);
    }
    frontAndBack
    {
        type            empty;
    }
    procBoundary3to1
    {
        type            processor;
        value           nonuniform List<scalar> 5(2.75263e-06 1.68611e-06 6.35105e-06 1.21039e-06 1.1085e-07);
    }
    procBoundary3to2
    {
        type            processor;
        value           nonuniform List<scalar> 5(5.09114e-07 5.1406e-07 5.5036e-07 6.063e-07 6.73209e-07);
    }
}


// ************************************************************************* //
