/*--------------------------------*- C++ -*----------------------------------*\
  =========                 |
  \\      /  F ield         | OpenFOAM: The Open Source CFD Toolbox
   \\    /   O peration     | Website:  https://openfoam.org
    \\  /    A nd           | Version:  8
     \\/     M anipulation  |
\*---------------------------------------------------------------------------*/
FoamFile
{
    version     2.0;
    format      ascii;
    class       volScalarField;
    location    "0.1";
    object      CO2;
}
// * * * * * * * * * * * * * * * * * * * * * * * * * * * * * * * * * * * * * //

dimensions      [0 0 0 0 0 0 0];

internalField   nonuniform List<scalar> 
25
(
0.0698131
0.0750073
0.0214859
0.00348255
0.000284122
0.0700064
0.0753181
0.0216573
0.00351686
0.000284117
0.0705146
0.0764577
0.0221622
0.00357495
0.000284756
0.0713802
0.0785248
0.0228721
0.00365111
0.000286683
0.0722937
0.0811612
0.0238924
0.00380289
0.000294601
)
;

boundaryField
{
    fuel
    {
        type            fixedValue;
        value           nonuniform List<scalar> 0();
    }
    air
    {
        type            fixedValue;
        value           uniform 0;
    }
    outlet
    {
        type            inletOutlet;
        inletValue      uniform 0;
        value           nonuniform List<scalar> 5(0.0722937 0.0811612 0.0238924 0.00380289 0.000294601);
    }
    frontAndBack
    {
        type            empty;
    }
    procBoundary3to1
    {
        type            processor;
        value           nonuniform List<scalar> 5(0.0698255 0.0750069 0.0214853 0.00348241 0.000284111);
    }
    procBoundary3to2
    {
        type            processor;
        value           nonuniform List<scalar> 5(0.0576153 0.0577071 0.0578983 0.0582068 0.0585305);
    }
}


// ************************************************************************* //
