/*--------------------------------*- C++ -*----------------------------------*\
  =========                 |
  \\      /  F ield         | OpenFOAM: The Open Source CFD Toolbox
   \\    /   O peration     | Website:  https://openfoam.org
    \\  /    A nd           | Version:  8
     \\/     M anipulation  |
\*---------------------------------------------------------------------------*/
FoamFile
{
    version     2.0;
    format      ascii;
    class       volScalarField;
    location    "0.1";
    object      H2;
}
// * * * * * * * * * * * * * * * * * * * * * * * * * * * * * * * * * * * * * //

dimensions      [0 0 0 0 0 0 0];

internalField   nonuniform List<scalar> 
25
(
0.00411639
0.000454113
0.000124095
1.94184e-05
1.52645e-06
0.00412423
0.000456147
0.000124519
1.92826e-05
1.47393e-06
0.00414197
0.000463314
0.000126476
1.90482e-05
1.39004e-06
0.00418022
0.000476931
0.000129328
1.87436e-05
1.29294e-06
0.00422465
0.000494784
0.000134018
1.88808e-05
1.23726e-06
)
;

boundaryField
{
    fuel
    {
        type            fixedValue;
        value           nonuniform List<scalar> 0();
    }
    air
    {
        type            fixedValue;
        value           uniform 0;
    }
    outlet
    {
        type            inletOutlet;
        inletValue      uniform 0;
        value           nonuniform List<scalar> 5(0.00422465 0.000494784 0.000134018 1.88808e-05 1.23726e-06);
    }
    frontAndBack
    {
        type            empty;
    }
    procBoundary3to1
    {
        type            processor;
        value           nonuniform List<scalar> 5(0.0041223 0.000454598 0.000124105 1.94179e-05 1.52641e-06);
    }
    procBoundary3to2
    {
        type            processor;
        value           nonuniform List<scalar> 5(0.00342362 0.00341964 0.00341521 0.00341268 0.00341358);
    }
}


// ************************************************************************* //
