/*--------------------------------*- C++ -*----------------------------------*\
  =========                 |
  \\      /  F ield         | OpenFOAM: The Open Source CFD Toolbox
   \\    /   O peration     | Website:  https://openfoam.org
    \\  /    A nd           | Version:  8
     \\/     M anipulation  |
\*---------------------------------------------------------------------------*/
FoamFile
{
    version     2.0;
    format      ascii;
    class       volScalarField;
    location    "0.1";
    object      H2O;
}
// * * * * * * * * * * * * * * * * * * * * * * * * * * * * * * * * * * * * * //

dimensions      [0 0 0 0 0 0 0];

internalField   nonuniform List<scalar> 
25
(
0.0984684
0.0659053
0.0189499
0.00307295
0.000252046
0.0984313
0.06615
0.0190922
0.0030998
0.000251456
0.0983304
0.0670803
0.0195213
0.00314532
0.000251087
0.0982283
0.0687873
0.0201263
0.00320533
0.000251689
0.0981707
0.0709996
0.0210098
0.0033328
0.000257725
)
;

boundaryField
{
    fuel
    {
        type            fixedValue;
        value           nonuniform List<scalar> 0();
    }
    air
    {
        type            fixedValue;
        value           uniform 0;
    }
    outlet
    {
        type            inletOutlet;
        inletValue      uniform 0;
        value           nonuniform List<scalar> 5(0.0981707 0.0709996 0.0210098 0.0033328 0.000257725);
    }
    frontAndBack
    {
        type            empty;
    }
    procBoundary3to1
    {
        type            processor;
        value           nonuniform List<scalar> 5(0.0985039 0.0659071 0.0189494 0.00307284 0.000252038);
    }
    procBoundary3to2
    {
        type            processor;
        value           nonuniform List<scalar> 5(0.0798828 0.0797588 0.079502 0.0791632 0.0788911);
    }
}


// ************************************************************************* //
