/*--------------------------------*- C++ -*----------------------------------*\
  =========                 |
  \\      /  F ield         | OpenFOAM: The Open Source CFD Toolbox
   \\    /   O peration     | Website:  https://openfoam.org
    \\  /    A nd           | Version:  8
     \\/     M anipulation  |
\*---------------------------------------------------------------------------*/
FoamFile
{
    version     2.0;
    format      ascii;
    class       volScalarField;
    location    "0.1";
    object      HCN;
}
// * * * * * * * * * * * * * * * * * * * * * * * * * * * * * * * * * * * * * //

dimensions      [0 0 0 0 0 0 0];

internalField   nonuniform List<scalar> 
25
(
4.20779e-06
4.66142e-07
1.57695e-07
4.18324e-08
6.28959e-09
4.1524e-06
4.61357e-07
1.56463e-07
4.11972e-08
6.05326e-09
4.0262e-06
4.53432e-07
1.55366e-07
4.01035e-08
5.70385e-09
3.87079e-06
4.46258e-07
1.54333e-07
3.87404e-08
5.3121e-09
3.76956e-06
4.46256e-07
1.55946e-07
3.82806e-08
5.0588e-09
)
;

boundaryField
{
    fuel
    {
        type            fixedValue;
        value           nonuniform List<scalar> 0();
    }
    air
    {
        type            fixedValue;
        value           uniform 0;
    }
    outlet
    {
        type            inletOutlet;
        inletValue      uniform 0;
        value           nonuniform List<scalar> 5(3.76956e-06 4.46256e-07 1.55946e-07 3.82806e-08 5.0588e-09);
    }
    frontAndBack
    {
        type            empty;
    }
    procBoundary3to1
    {
        type            processor;
        value           nonuniform List<scalar> 5(4.20735e-06 4.66113e-07 1.57709e-07 4.18447e-08 6.29288e-09);
    }
    procBoundary3to2
    {
        type            processor;
        value           nonuniform List<scalar> 5(4.15809e-06 4.11908e-06 4.04756e-06 3.96229e-06 3.90111e-06);
    }
}


// ************************************************************************* //
