/*--------------------------------*- C++ -*----------------------------------*\
  =========                 |
  \\      /  F ield         | OpenFOAM: The Open Source CFD Toolbox
   \\    /   O peration     | Website:  https://openfoam.org
    \\  /    A nd           | Version:  8
     \\/     M anipulation  |
\*---------------------------------------------------------------------------*/
FoamFile
{
    version     2.0;
    format      ascii;
    class       volScalarField;
    location    "0.1";
    object      HCNN;
}
// * * * * * * * * * * * * * * * * * * * * * * * * * * * * * * * * * * * * * //

dimensions      [0 0 0 0 0 0 0];

internalField   nonuniform List<scalar> 
25
(
1.01313e-11
1.05449e-12
4.88228e-14
8.01385e-16
6.47723e-18
1.03492e-11
1.07453e-12
4.99685e-14
8.23885e-16
6.67528e-18
1.04267e-11
1.09467e-12
5.17989e-14
8.60896e-16
6.98724e-18
1.04698e-11
1.11927e-12
5.41669e-14
9.08832e-16
7.38546e-18
1.01249e-11
1.12187e-12
5.62755e-14
9.62845e-16
7.87912e-18
)
;

boundaryField
{
    fuel
    {
        type            fixedValue;
        value           nonuniform List<scalar> 0();
    }
    air
    {
        type            fixedValue;
        value           uniform 0;
    }
    outlet
    {
        type            inletOutlet;
        inletValue      uniform 0;
        value           nonuniform List<scalar> 5(1.01249e-11 1.12187e-12 5.62755e-14 9.62845e-16 7.87912e-18);
    }
    frontAndBack
    {
        type            empty;
    }
    procBoundary3to1
    {
        type            processor;
        value           nonuniform List<scalar> 5(1.03468e-11 1.07228e-12 4.9578e-14 8.13393e-16 6.57237e-18);
    }
    procBoundary3to2
    {
        type            processor;
        value           nonuniform List<scalar> 5(1.81289e-12 1.83914e-12 1.83913e-12 1.82095e-12 1.7531e-12);
    }
}


// ************************************************************************* //
