/*--------------------------------*- C++ -*----------------------------------*\
  =========                 |
  \\      /  F ield         | OpenFOAM: The Open Source CFD Toolbox
   \\    /   O peration     | Website:  https://openfoam.org
    \\  /    A nd           | Version:  8
     \\/     M anipulation  |
\*---------------------------------------------------------------------------*/
FoamFile
{
    version     2.0;
    format      ascii;
    class       volScalarField;
    location    "0.1";
    object      HCO;
}
// * * * * * * * * * * * * * * * * * * * * * * * * * * * * * * * * * * * * * //

dimensions      [0 0 0 0 0 0 0];

internalField   nonuniform List<scalar> 
25
(
3.78037e-08
3.93474e-09
1.83806e-10
3.29057e-12
4.09071e-14
3.8735e-08
4.04273e-09
1.89992e-10
3.41477e-12
4.25577e-14
4.12906e-08
4.35299e-09
2.07895e-10
3.75161e-12
4.67359e-14
4.68929e-08
4.98956e-09
2.42365e-10
4.38267e-12
5.42016e-14
5.41525e-08
5.80144e-09
2.88295e-10
5.2588e-12
6.49227e-14
)
;

boundaryField
{
    fuel
    {
        type            fixedValue;
        value           nonuniform List<scalar> 0();
    }
    air
    {
        type            fixedValue;
        value           uniform 0;
    }
    outlet
    {
        type            inletOutlet;
        inletValue      uniform 0;
        value           nonuniform List<scalar> 5(5.41525e-08 5.80144e-09 2.88295e-10 5.2588e-12 6.49227e-14);
    }
    frontAndBack
    {
        type            empty;
    }
    procBoundary3to1
    {
        type            processor;
        value           nonuniform List<scalar> 5(3.80455e-08 3.95565e-09 1.84708e-10 3.30499e-12 4.10229e-14);
    }
    procBoundary3to2
    {
        type            processor;
        value           nonuniform List<scalar> 5(7.59499e-09 7.74982e-09 8.13202e-09 8.91921e-09 9.87541e-09);
    }
}


// ************************************************************************* //
