/*--------------------------------*- C++ -*----------------------------------*\
  =========                 |
  \\      /  F ield         | OpenFOAM: The Open Source CFD Toolbox
   \\    /   O peration     | Website:  https://openfoam.org
    \\  /    A nd           | Version:  8
     \\/     M anipulation  |
\*---------------------------------------------------------------------------*/
FoamFile
{
    version     2.0;
    format      ascii;
    class       volScalarField;
    location    "0.1";
    object      N2;
}
// * * * * * * * * * * * * * * * * * * * * * * * * * * * * * * * * * * * * * //

dimensions      [0 0 0 0 0 0 0];

internalField   nonuniform List<scalar> 
25
(
0.724972
0.757219
0.770053
0.7719
0.770514
0.724955
0.757215
0.770085
0.771946
0.770522
0.724645
0.757036
0.770087
0.772005
0.770538
0.723929
0.756619
0.77005
0.772069
0.770559
0.722887
0.756018
0.769957
0.77215
0.770585
)
;

boundaryField
{
    fuel
    {
        type            fixedValue;
        value           nonuniform List<scalar> 0();
    }
    air
    {
        type            fixedValue;
        value           uniform 0.77;
    }
    outlet
    {
        type            inletOutlet;
        inletValue      uniform 1;
        value           nonuniform List<scalar> 5(0.722887 0.756018 0.769957 0.77215 0.770585);
    }
    frontAndBack
    {
        type            empty;
    }
    procBoundary3to1
    {
        type            processor;
        value           nonuniform List<scalar> 5(0.724973 0.757219 0.770053 0.7719 0.770514);
    }
    procBoundary3to2
    {
        type            processor;
        value           nonuniform List<scalar> 5(0.64987 0.649914 0.64966 0.649173 0.648804);
    }
}


// ************************************************************************* //
