/*--------------------------------*- C++ -*----------------------------------*\
  =========                 |
  \\      /  F ield         | OpenFOAM: The Open Source CFD Toolbox
   \\    /   O peration     | Website:  https://openfoam.org
    \\  /    A nd           | Version:  8
     \\/     M anipulation  |
\*---------------------------------------------------------------------------*/
FoamFile
{
    version     2.0;
    format      ascii;
    class       volScalarField;
    location    "0.05";
    object      C2H2;
}
// * * * * * * * * * * * * * * * * * * * * * * * * * * * * * * * * * * * * * //

dimensions      [0 0 0 0 0 0 0];

internalField   nonuniform List<scalar> 
25
(
0.000717974
6.8862e-05
3.92752e-05
9.04438e-06
7.08801e-07
0.000878047
8.50373e-05
4.73295e-05
1.09485e-05
9.04078e-07
0.0011961
0.000116927
6.05397e-05
1.39228e-05
1.20719e-06
0.00178828
0.000170994
7.77009e-05
1.72625e-05
1.5347e-06
0.00247612
0.0002294
9.27963e-05
1.98871e-05
1.78861e-06
)
;

boundaryField
{
    fuel
    {
        type            fixedValue;
        value           nonuniform List<scalar> 0();
    }
    air
    {
        type            fixedValue;
        value           uniform 0;
    }
    outlet
    {
        type            inletOutlet;
        inletValue      uniform 0;
        value           nonuniform List<scalar> 5(0.000717974 6.8862e-05 3.92752e-05 9.04438e-06 7.08801e-07);
    }
    frontAndBack
    {
        type            empty;
    }
    procBoundary1to0
    {
        type            processor;
        value           nonuniform List<scalar> 5(0.00127861 0.00155866 0.00192279 0.00240013 0.00282291);
    }
    procBoundary1to3
    {
        type            processor;
        value           nonuniform List<scalar> 5(0.00247612 0.000229397 9.27991e-05 1.98872e-05 1.78858e-06);
    }
}


// ************************************************************************* //
