/*--------------------------------*- C++ -*----------------------------------*\
  =========                 |
  \\      /  F ield         | OpenFOAM: The Open Source CFD Toolbox
   \\    /   O peration     | Website:  https://openfoam.org
    \\  /    A nd           | Version:  8
     \\/     M anipulation  |
\*---------------------------------------------------------------------------*/
FoamFile
{
    version     2.0;
    format      ascii;
    class       volScalarField;
    location    "0.05";
    object      C2H3;
}
// * * * * * * * * * * * * * * * * * * * * * * * * * * * * * * * * * * * * * //

dimensions      [0 0 0 0 0 0 0];

internalField   nonuniform List<scalar> 
25
(
9.72711e-09
1.33109e-09
7.98107e-11
1.59693e-12
1.29685e-14
2.80504e-08
3.62052e-09
2.01864e-10
3.93661e-12
3.18837e-14
1.0168e-07
1.14083e-08
5.85326e-10
1.10734e-11
8.86941e-14
3.55578e-07
3.3121e-08
1.56129e-09
2.85887e-11
2.25584e-13
7.34972e-07
6.31033e-08
2.87497e-09
5.21444e-11
4.10396e-13
)
;

boundaryField
{
    fuel
    {
        type            fixedValue;
        value           nonuniform List<scalar> 0();
    }
    air
    {
        type            fixedValue;
        value           uniform 0;
    }
    outlet
    {
        type            inletOutlet;
        inletValue      uniform 0;
        value           nonuniform List<scalar> 5(9.72711e-09 1.33109e-09 7.98107e-11 1.59693e-12 1.29685e-14);
    }
    frontAndBack
    {
        type            empty;
    }
    procBoundary1to0
    {
        type            processor;
        value           nonuniform List<scalar> 5(1.7535e-09 4.95173e-09 1.58637e-08 4.73032e-08 9.29747e-08);
    }
    procBoundary1to3
    {
        type            processor;
        value           nonuniform List<scalar> 5(7.34925e-07 6.30995e-08 2.87474e-09 5.21393e-11 4.10354e-13);
    }
}


// ************************************************************************* //
