/*--------------------------------*- C++ -*----------------------------------*\
  =========                 |
  \\      /  F ield         | OpenFOAM: The Open Source CFD Toolbox
   \\    /   O peration     | Website:  https://openfoam.org
    \\  /    A nd           | Version:  8
     \\/     M anipulation  |
\*---------------------------------------------------------------------------*/
FoamFile
{
    version     2.0;
    format      ascii;
    class       volScalarField;
    location    "0.05";
    object      C2H5;
}
// * * * * * * * * * * * * * * * * * * * * * * * * * * * * * * * * * * * * * //

dimensions      [0 0 0 0 0 0 0];

internalField   nonuniform List<scalar> 
25
(
1.40716e-07
1.52277e-08
1.53185e-09
7.06136e-11
2.76604e-12
2.8515e-07
2.99534e-08
2.27522e-09
7.95074e-11
2.92116e-12
6.92601e-07
6.75901e-08
4.17511e-09
1.09325e-10
3.31167e-12
1.56388e-06
1.39502e-07
7.55713e-09
1.65639e-10
3.78813e-12
2.31888e-06
2.02242e-07
1.05352e-08
2.17582e-10
4.17319e-12
)
;

boundaryField
{
    fuel
    {
        type            fixedValue;
        value           nonuniform List<scalar> 0();
    }
    air
    {
        type            fixedValue;
        value           uniform 0;
    }
    outlet
    {
        type            inletOutlet;
        inletValue      uniform 0;
        value           nonuniform List<scalar> 5(1.40716e-07 1.52277e-08 1.53185e-09 7.06136e-11 2.76604e-12);
    }
    frontAndBack
    {
        type            empty;
    }
    procBoundary1to0
    {
        type            processor;
        value           nonuniform List<scalar> 5(3.07008e-08 5.06174e-08 1.01381e-07 2.02439e-07 3.14706e-07);
    }
    procBoundary1to3
    {
        type            processor;
        value           nonuniform List<scalar> 5(2.31869e-06 2.02227e-07 1.05338e-08 2.17547e-10 4.17236e-12);
    }
}


// ************************************************************************* //
