/*--------------------------------*- C++ -*----------------------------------*\
  =========                 |
  \\      /  F ield         | OpenFOAM: The Open Source CFD Toolbox
   \\    /   O peration     | Website:  https://openfoam.org
    \\  /    A nd           | Version:  8
     \\/     M anipulation  |
\*---------------------------------------------------------------------------*/
FoamFile
{
    version     2.0;
    format      ascii;
    class       volScalarField;
    location    "0.05";
    object      CH;
}
// * * * * * * * * * * * * * * * * * * * * * * * * * * * * * * * * * * * * * //

dimensions      [0 0 0 0 0 0 0];

internalField   nonuniform List<scalar> 
25
(
3.53784e-14
9.39113e-15
6.57923e-16
1.42407e-17
1.18468e-19
1.70001e-13
3.80133e-14
2.43404e-15
5.05686e-17
4.18009e-19
1.18429e-12
1.78772e-13
1.00003e-14
1.96993e-16
1.60007e-18
7.24985e-12
7.60766e-13
3.72338e-14
6.9468e-16
5.52122e-18
2.56861e-11
2.17165e-12
9.77374e-14
1.76761e-15
1.38888e-17
)
;

boundaryField
{
    fuel
    {
        type            fixedValue;
        value           nonuniform List<scalar> 0();
    }
    air
    {
        type            fixedValue;
        value           uniform 0;
    }
    outlet
    {
        type            inletOutlet;
        inletValue      uniform 0;
        value           nonuniform List<scalar> 5(3.53784e-14 9.39113e-15 6.57923e-16 1.42407e-17 1.18468e-19);
    }
    frontAndBack
    {
        type            empty;
    }
    procBoundary1to0
    {
        type            processor;
        value           nonuniform List<scalar> 5(9.70082e-15 4.44255e-14 2.27712e-13 1.03755e-12 3.10773e-12);
    }
    procBoundary1to3
    {
        type            processor;
        value           nonuniform List<scalar> 5(2.56839e-11 2.17147e-12 9.77279e-14 1.76741e-15 1.38871e-17);
    }
}


// ************************************************************************* //
