/*--------------------------------*- C++ -*----------------------------------*\
  =========                 |
  \\      /  F ield         | OpenFOAM: The Open Source CFD Toolbox
   \\    /   O peration     | Website:  https://openfoam.org
    \\  /    A nd           | Version:  8
     \\/     M anipulation  |
\*---------------------------------------------------------------------------*/
FoamFile
{
    version     2.0;
    format      ascii;
    class       volScalarField;
    location    "0.05";
    object      CH2(S);
}
// * * * * * * * * * * * * * * * * * * * * * * * * * * * * * * * * * * * * * //

dimensions      [0 0 0 0 0 0 0];

internalField   nonuniform List<scalar> 
25
(
2.44646e-11
3.35288e-12
1.89061e-13
3.75501e-15
9.33613e-17
7.06077e-11
9.14099e-12
4.95524e-13
9.63644e-15
1.44009e-16
2.56144e-10
2.89156e-11
1.46499e-12
2.77061e-14
3.00618e-16
9.04701e-10
8.48796e-11
3.97795e-12
7.28718e-14
6.74077e-16
1.94443e-09
1.66705e-10
7.54313e-12
1.36706e-13
1.19256e-15
)
;

boundaryField
{
    fuel
    {
        type            fixedValue;
        value           nonuniform List<scalar> 0();
    }
    air
    {
        type            fixedValue;
        value           uniform 0;
    }
    outlet
    {
        type            inletOutlet;
        inletValue      uniform 0;
        value           nonuniform List<scalar> 5(2.44646e-11 3.35288e-12 1.89061e-13 3.75501e-15 9.33613e-17);
    }
    frontAndBack
    {
        type            empty;
    }
    procBoundary1to0
    {
        type            processor;
        value           nonuniform List<scalar> 5(3.6905e-12 1.12335e-11 3.80349e-11 1.1752e-10 2.37657e-10);
    }
    procBoundary1to3
    {
        type            processor;
        value           nonuniform List<scalar> 5(1.94425e-09 1.66691e-10 7.5424e-12 1.3669e-13 1.19239e-15);
    }
}


// ************************************************************************* //
