/*--------------------------------*- C++ -*----------------------------------*\
  =========                 |
  \\      /  F ield         | OpenFOAM: The Open Source CFD Toolbox
   \\    /   O peration     | Website:  https://openfoam.org
    \\  /    A nd           | Version:  8
     \\/     M anipulation  |
\*---------------------------------------------------------------------------*/
FoamFile
{
    version     2.0;
    format      ascii;
    class       volScalarField;
    location    "0.05";
    object      CH3O;
}
// * * * * * * * * * * * * * * * * * * * * * * * * * * * * * * * * * * * * * //

dimensions      [0 0 0 0 0 0 0];

internalField   nonuniform List<scalar> 
25
(
1.16752e-08
2.68792e-09
1.14829e-08
6.67571e-09
9.27332e-11
2.002e-08
3.42908e-09
1.07907e-08
6.23133e-09
9.47499e-11
3.7675e-08
4.99389e-09
1.08014e-08
6.1827e-09
1.05385e-10
6.08699e-08
6.996e-09
1.13161e-08
6.3987e-09
1.1942e-10
6.85214e-08
7.88316e-09
1.2031e-08
6.91301e-09
1.32582e-10
)
;

boundaryField
{
    fuel
    {
        type            fixedValue;
        value           nonuniform List<scalar> 0();
    }
    air
    {
        type            fixedValue;
        value           uniform 0;
    }
    outlet
    {
        type            inletOutlet;
        inletValue      uniform 0;
        value           nonuniform List<scalar> 5(1.16752e-08 2.68792e-09 1.14829e-08 6.67571e-09 9.27332e-11);
    }
    frontAndBack
    {
        type            empty;
    }
    procBoundary1to0
    {
        type            processor;
        value           nonuniform List<scalar> 5(1.78254e-09 3.02901e-09 5.38337e-09 8.33315e-09 9.34802e-09);
    }
    procBoundary1to3
    {
        type            processor;
        value           nonuniform List<scalar> 5(6.85136e-08 7.88199e-09 1.20274e-08 6.91199e-09 1.32569e-10);
    }
}


// ************************************************************************* //
