/*--------------------------------*- C++ -*----------------------------------*\
  =========                 |
  \\      /  F ield         | OpenFOAM: The Open Source CFD Toolbox
   \\    /   O peration     | Website:  https://openfoam.org
    \\  /    A nd           | Version:  8
     \\/     M anipulation  |
\*---------------------------------------------------------------------------*/
FoamFile
{
    version     2.0;
    format      ascii;
    class       volScalarField;
    location    "0.05";
    object      H2;
}
// * * * * * * * * * * * * * * * * * * * * * * * * * * * * * * * * * * * * * //

dimensions      [0 0 0 0 0 0 0];

internalField   nonuniform List<scalar> 
25
(
0.000435189
6.25645e-05
3.00807e-05
6.34416e-06
4.87053e-07
0.00058163
7.76644e-05
3.68229e-05
7.77365e-06
6.16637e-07
0.000867045
0.000105895
4.78898e-05
9.95308e-06
8.06806e-07
0.00132079
0.000148843
6.11308e-05
1.22045e-05
9.89304e-07
0.00171468
0.000186402
7.09977e-05
1.37482e-05
1.11492e-06
)
;

boundaryField
{
    fuel
    {
        type            fixedValue;
        value           nonuniform List<scalar> 0();
    }
    air
    {
        type            fixedValue;
        value           uniform 0;
    }
    outlet
    {
        type            inletOutlet;
        inletValue      uniform 0;
        value           nonuniform List<scalar> 5(0.000435189 6.25645e-05 3.00807e-05 6.34416e-06 4.87053e-07);
    }
    frontAndBack
    {
        type            empty;
    }
    procBoundary1to0
    {
        type            processor;
        value           nonuniform List<scalar> 5(0.000592039 0.00075822 0.00098019 0.00125794 0.00147108);
    }
    procBoundary1to3
    {
        type            processor;
        value           nonuniform List<scalar> 5(0.00171468 0.000186395 7.09974e-05 1.37482e-05 1.11492e-06);
    }
}


// ************************************************************************* //
