/*--------------------------------*- C++ -*----------------------------------*\
  =========                 |
  \\      /  F ield         | OpenFOAM: The Open Source CFD Toolbox
   \\    /   O peration     | Website:  https://openfoam.org
    \\  /    A nd           | Version:  8
     \\/     M anipulation  |
\*---------------------------------------------------------------------------*/
FoamFile
{
    version     2.0;
    format      ascii;
    class       volScalarField;
    location    "0.05";
    object      H2O;
}
// * * * * * * * * * * * * * * * * * * * * * * * * * * * * * * * * * * * * * //

dimensions      [0 0 0 0 0 0 0];

internalField   nonuniform List<scalar> 
25
(
0.0303873
0.0455951
0.011513
0.00155533
9.1637e-05
0.0334793
0.0467679
0.0119714
0.00167618
0.000104488
0.0378957
0.0487132
0.0127808
0.00187565
0.000124093
0.0431485
0.0507122
0.0136097
0.00206647
0.00014251
0.0468884
0.0519882
0.0141761
0.0021978
0.0001557
)
;

boundaryField
{
    fuel
    {
        type            fixedValue;
        value           nonuniform List<scalar> 0();
    }
    air
    {
        type            fixedValue;
        value           uniform 0;
    }
    outlet
    {
        type            inletOutlet;
        inletValue      uniform 0;
        value           nonuniform List<scalar> 5(0.0303873 0.0455951 0.011513 0.00155533 9.1637e-05);
    }
    frontAndBack
    {
        type            empty;
    }
    procBoundary1to0
    {
        type            processor;
        value           nonuniform List<scalar> 5(0.0166921 0.0193826 0.0224222 0.0256263 0.0277401);
    }
    procBoundary1to3
    {
        type            processor;
        value           nonuniform List<scalar> 5(0.0468881 0.0519876 0.0141757 0.00219771 0.000155693);
    }
}


// ************************************************************************* //
