/*--------------------------------*- C++ -*----------------------------------*\
  =========                 |
  \\      /  F ield         | OpenFOAM: The Open Source CFD Toolbox
   \\    /   O peration     | Website:  https://openfoam.org
    \\  /    A nd           | Version:  8
     \\/     M anipulation  |
\*---------------------------------------------------------------------------*/
FoamFile
{
    version     2.0;
    format      ascii;
    class       volScalarField;
    location    "0.05";
    object      HCCOH;
}
// * * * * * * * * * * * * * * * * * * * * * * * * * * * * * * * * * * * * * //

dimensions      [0 0 0 0 0 0 0];

internalField   nonuniform List<scalar> 
25
(
5.10479e-07
5.22436e-08
4.36533e-08
1.12071e-08
9.57875e-10
6.80969e-07
6.8982e-08
5.40675e-08
1.38353e-08
1.21594e-09
9.87126e-07
9.88924e-08
7.05457e-08
1.76989e-08
1.56834e-09
1.44303e-06
1.41331e-07
9.01859e-08
2.1664e-08
1.89512e-09
1.88441e-06
1.80613e-07
1.06452e-07
2.45497e-08
2.11917e-09
)
;

boundaryField
{
    fuel
    {
        type            fixedValue;
        value           nonuniform List<scalar> 0();
    }
    air
    {
        type            fixedValue;
        value           uniform 0;
    }
    outlet
    {
        type            inletOutlet;
        inletValue      uniform 0;
        value           nonuniform List<scalar> 5(5.10479e-07 5.22436e-08 4.36533e-08 1.12071e-08 9.57875e-10);
    }
    frontAndBack
    {
        type            empty;
    }
    procBoundary1to0
    {
        type            processor;
        value           nonuniform List<scalar> 5(4.52898e-07 5.90529e-07 7.71771e-07 9.95814e-07 1.18759e-06);
    }
    procBoundary1to3
    {
        type            processor;
        value           nonuniform List<scalar> 5(1.88436e-06 1.80607e-07 1.06448e-07 2.45486e-08 2.11906e-09);
    }
}


// ************************************************************************* //
