/*--------------------------------*- C++ -*----------------------------------*\
  =========                 |
  \\      /  F ield         | OpenFOAM: The Open Source CFD Toolbox
   \\    /   O peration     | Website:  https://openfoam.org
    \\  /    A nd           | Version:  8
     \\/     M anipulation  |
\*---------------------------------------------------------------------------*/
FoamFile
{
    version     2.0;
    format      ascii;
    class       volScalarField;
    location    "0.05";
    object      HCCO;
}
// * * * * * * * * * * * * * * * * * * * * * * * * * * * * * * * * * * * * * //

dimensions      [0 0 0 0 0 0 0];

internalField   nonuniform List<scalar> 
25
(
1.03258e-08
1.44565e-09
1.00151e-10
2.90657e-12
3.23954e-14
3.01151e-08
4.01349e-09
2.41623e-10
5.59585e-12
5.6161e-14
1.12922e-07
1.30955e-08
7.03687e-10
1.42368e-11
1.28598e-13
4.24498e-07
4.022e-08
1.94791e-09
3.66656e-11
3.08273e-13
9.62626e-07
8.23899e-08
3.806e-09
6.99614e-11
5.72346e-13
)
;

boundaryField
{
    fuel
    {
        type            fixedValue;
        value           nonuniform List<scalar> 0();
    }
    air
    {
        type            fixedValue;
        value           uniform 0;
    }
    outlet
    {
        type            inletOutlet;
        inletValue      uniform 0;
        value           nonuniform List<scalar> 5(1.03258e-08 1.44565e-09 1.00151e-10 2.90657e-12 3.23954e-14);
    }
    frontAndBack
    {
        type            empty;
    }
    procBoundary1to0
    {
        type            processor;
        value           nonuniform List<scalar> 5(1.8918e-09 5.26409e-09 1.75118e-08 5.58387e-08 1.19178e-07);
    }
    procBoundary1to3
    {
        type            processor;
        value           nonuniform List<scalar> 5(9.62583e-07 8.23863e-08 3.80574e-09 6.99554e-11 5.72293e-13);
    }
}


// ************************************************************************* //
