/*--------------------------------*- C++ -*----------------------------------*\
  =========                 |
  \\      /  F ield         | OpenFOAM: The Open Source CFD Toolbox
   \\    /   O peration     | Website:  https://openfoam.org
    \\  /    A nd           | Version:  8
     \\/     M anipulation  |
\*---------------------------------------------------------------------------*/
FoamFile
{
    version     2.0;
    format      ascii;
    class       volScalarField;
    location    "0.05";
    object      HCNO;
}
// * * * * * * * * * * * * * * * * * * * * * * * * * * * * * * * * * * * * * //

dimensions      [0 0 0 0 0 0 0];

internalField   nonuniform List<scalar> 
25
(
2.92981e-07
3.06273e-08
2.46074e-08
6.25497e-09
5.29096e-10
4.14419e-07
4.31872e-08
3.15337e-08
7.85216e-09
6.74504e-10
6.68228e-07
6.73905e-08
4.28028e-08
1.02895e-08
8.8273e-10
1.10084e-06
1.05583e-07
5.62258e-08
1.28181e-08
1.07871e-09
1.45558e-06
1.36919e-07
6.56344e-08
1.45148e-08
1.21248e-09
)
;

boundaryField
{
    fuel
    {
        type            fixedValue;
        value           nonuniform List<scalar> 0();
    }
    air
    {
        type            fixedValue;
        value           uniform 0;
    }
    outlet
    {
        type            inletOutlet;
        inletValue      uniform 0;
        value           nonuniform List<scalar> 5(2.92981e-07 3.06273e-08 2.46074e-08 6.25497e-09 5.29096e-10);
    }
    frontAndBack
    {
        type            empty;
    }
    procBoundary1to0
    {
        type            processor;
        value           nonuniform List<scalar> 5(3.38627e-07 4.49867e-07 6.10583e-07 8.19957e-07 9.74416e-07);
    }
    procBoundary1to3
    {
        type            processor;
        value           nonuniform List<scalar> 5(1.45525e-06 1.36888e-07 6.56144e-08 1.45088e-08 1.21192e-09);
    }
}


// ************************************************************************* //
