/*--------------------------------*- C++ -*----------------------------------*\
  =========                 |
  \\      /  F ield         | OpenFOAM: The Open Source CFD Toolbox
   \\    /   O peration     | Website:  https://openfoam.org
    \\  /    A nd           | Version:  8
     \\/     M anipulation  |
\*---------------------------------------------------------------------------*/
FoamFile
{
    version     2.0;
    format      ascii;
    class       volScalarField;
    location    "0.05";
    object      N;
}
// * * * * * * * * * * * * * * * * * * * * * * * * * * * * * * * * * * * * * //

dimensions      [0 0 0 0 0 0 0];

internalField   nonuniform List<scalar> 
25
(
7.05681e-12
4.9572e-11
2.2317e-12
3.97186e-14
4.20609e-16
9.58642e-12
6.10329e-11
2.73143e-12
4.84594e-14
5.00293e-16
1.31124e-11
7.67105e-11
3.49263e-12
6.28125e-14
6.51931e-16
1.91017e-11
1.04655e-10
4.78701e-12
8.66645e-14
8.97521e-16
2.62576e-11
1.35444e-10
6.18464e-12
1.12486e-13
1.16238e-15
)
;

boundaryField
{
    fuel
    {
        type            fixedValue;
        value           nonuniform List<scalar> 0();
    }
    air
    {
        type            fixedValue;
        value           uniform 0;
    }
    outlet
    {
        type            inletOutlet;
        inletValue      uniform 0;
        value           nonuniform List<scalar> 5(7.05681e-12 4.9572e-11 2.2317e-12 3.97186e-14 4.20609e-16);
    }
    frontAndBack
    {
        type            empty;
    }
    procBoundary1to0
    {
        type            processor;
        value           nonuniform List<scalar> 5(7.32112e-13 1.09229e-12 1.6261e-12 2.50292e-12 3.31772e-12);
    }
    procBoundary1to3
    {
        type            processor;
        value           nonuniform List<scalar> 5(2.62506e-11 1.35402e-10 6.18272e-12 1.1245e-13 1.162e-15);
    }
}


// ************************************************************************* //
