/*--------------------------------*- C++ -*----------------------------------*\
  =========                 |
  \\      /  F ield         | OpenFOAM: The Open Source CFD Toolbox
   \\    /   O peration     | Website:  https://openfoam.org
    \\  /    A nd           | Version:  8
     \\/     M anipulation  |
\*---------------------------------------------------------------------------*/
FoamFile
{
    version     2.0;
    format      ascii;
    class       volScalarField;
    location    "0.05";
    object      N2;
}
// * * * * * * * * * * * * * * * * * * * * * * * * * * * * * * * * * * * * * //

dimensions      [0 0 0 0 0 0 0];

internalField   nonuniform List<scalar> 
25
(
0.840054
0.83749
0.819116
0.793338
0.775563
0.833607
0.833053
0.815811
0.791607
0.775145
0.826773
0.828286
0.812746
0.7903
0.774844
0.821385
0.824682
0.810604
0.789464
0.774683
0.818414
0.822744
0.809531
0.789128
0.774658
)
;

boundaryField
{
    fuel
    {
        type            fixedValue;
        value           nonuniform List<scalar> 0();
    }
    air
    {
        type            fixedValue;
        value           uniform 0.77;
    }
    outlet
    {
        type            inletOutlet;
        inletValue      uniform 1;
        value           nonuniform List<scalar> 5(0.840054 0.83749 0.819116 0.793338 0.775563);
    }
    frontAndBack
    {
        type            empty;
    }
    procBoundary1to0
    {
        type            processor;
        value           nonuniform List<scalar> 5(0.799289 0.788369 0.779012 0.771778 0.767917);
    }
    procBoundary1to3
    {
        type            processor;
        value           nonuniform List<scalar> 5(0.818415 0.822743 0.80953 0.789128 0.774658);
    }
}


// ************************************************************************* //
