/*--------------------------------*- C++ -*----------------------------------*\
  =========                 |
  \\      /  F ield         | OpenFOAM: The Open Source CFD Toolbox
   \\    /   O peration     | Website:  https://openfoam.org
    \\  /    A nd           | Version:  8
     \\/     M anipulation  |
\*---------------------------------------------------------------------------*/
FoamFile
{
    version     2.0;
    format      ascii;
    class       volScalarField;
    location    "0.05";
    object      NCO;
}
// * * * * * * * * * * * * * * * * * * * * * * * * * * * * * * * * * * * * * //

dimensions      [0 0 0 0 0 0 0];

internalField   nonuniform List<scalar> 
25
(
7.40291e-11
7.23483e-11
1.6501e-10
1.14322e-11
2.38062e-12
1.3071e-10
1.3366e-10
1.5938e-10
1.08455e-11
2.06567e-12
2.47483e-10
7.96848e-11
1.53891e-10
1.092e-11
1.67698e-12
4.89355e-10
7.60665e-11
1.5442e-10
1.15392e-11
1.38478e-12
7.24332e-10
1.1303e-10
1.61474e-10
1.24357e-11
1.24512e-12
)
;

boundaryField
{
    fuel
    {
        type            fixedValue;
        value           nonuniform List<scalar> 0();
    }
    air
    {
        type            fixedValue;
        value           uniform 0;
    }
    outlet
    {
        type            inletOutlet;
        inletValue      uniform 0;
        value           nonuniform List<scalar> 5(7.40291e-11 7.23483e-11 1.6501e-10 1.14322e-11 2.38062e-12);
    }
    frontAndBack
    {
        type            empty;
    }
    procBoundary1to0
    {
        type            processor;
        value           nonuniform List<scalar> 5(1.32404e-11 2.14952e-11 3.849e-11 6.9801e-11 9.29846e-11);
    }
    procBoundary1to3
    {
        type            processor;
        value           nonuniform List<scalar> 5(7.2406e-10 1.12994e-10 1.61406e-10 1.24317e-11 1.24533e-12);
    }
}


// ************************************************************************* //
