/*--------------------------------*- C++ -*----------------------------------*\
  =========                 |
  \\      /  F ield         | OpenFOAM: The Open Source CFD Toolbox
   \\    /   O peration     | Website:  https://openfoam.org
    \\  /    A nd           | Version:  8
     \\/     M anipulation  |
\*---------------------------------------------------------------------------*/
FoamFile
{
    version     2.0;
    format      ascii;
    class       volScalarField;
    location    "0.05";
    object      NO2;
}
// * * * * * * * * * * * * * * * * * * * * * * * * * * * * * * * * * * * * * //

dimensions      [0 0 0 0 0 0 0];

internalField   nonuniform List<scalar> 
25
(
1.95375e-06
1.34929e-06
8.31529e-06
2.14963e-06
1.61263e-07
1.70203e-06
1.51771e-06
9.3731e-06
2.52643e-06
2.02727e-07
1.21497e-06
1.73819e-06
1.07649e-05
3.07004e-06
2.62785e-07
7.5291e-07
1.93352e-06
1.20224e-05
3.58167e-06
3.19956e-07
5.82079e-07
2.05651e-06
1.27764e-05
3.92665e-06
3.62347e-07
)
;

boundaryField
{
    fuel
    {
        type            fixedValue;
        value           nonuniform List<scalar> 0();
    }
    air
    {
        type            fixedValue;
        value           uniform 0;
    }
    outlet
    {
        type            inletOutlet;
        inletValue      uniform 0;
        value           nonuniform List<scalar> 5(1.95375e-06 1.34929e-06 8.31529e-06 2.14963e-06 1.61263e-07);
    }
    frontAndBack
    {
        type            empty;
    }
    procBoundary1to0
    {
        type            processor;
        value           nonuniform List<scalar> 5(1.75684e-06 1.64554e-06 1.41182e-06 1.11242e-06 9.80722e-07);
    }
    procBoundary1to3
    {
        type            processor;
        value           nonuniform List<scalar> 5(5.81899e-07 2.05583e-06 1.27725e-05 3.92492e-06 3.62179e-07);
    }
}


// ************************************************************************* //
