/*--------------------------------*- C++ -*----------------------------------*\
  =========                 |
  \\      /  F ield         | OpenFOAM: The Open Source CFD Toolbox
   \\    /   O peration     | Website:  https://openfoam.org
    \\  /    A nd           | Version:  8
     \\/     M anipulation  |
\*---------------------------------------------------------------------------*/
FoamFile
{
    version     2.0;
    format      ascii;
    class       volScalarField;
    location    "0.05";
    object      O;
}
// * * * * * * * * * * * * * * * * * * * * * * * * * * * * * * * * * * * * * //

dimensions      [0 0 0 0 0 0 0];

internalField   nonuniform List<scalar> 
25
(
1.91568e-05
0.000141051
6.20534e-06
1.23537e-07
6.18173e-09
2.23098e-05
0.000149195
6.52292e-06
1.25243e-07
5.60867e-09
2.39926e-05
0.000148047
6.62104e-06
1.25904e-07
5.31573e-09
2.62478e-05
0.000154045
7.02455e-06
1.33204e-07
5.44834e-09
2.8721e-05
0.000165633
7.62105e-06
1.44789e-07
5.66021e-09
)
;

boundaryField
{
    fuel
    {
        type            fixedValue;
        value           nonuniform List<scalar> 0();
    }
    air
    {
        type            fixedValue;
        value           uniform 0;
    }
    outlet
    {
        type            inletOutlet;
        inletValue      uniform 0;
        value           nonuniform List<scalar> 5(1.91568e-05 0.000141051 6.20534e-06 1.23537e-07 6.18173e-09);
    }
    frontAndBack
    {
        type            empty;
    }
    procBoundary1to0
    {
        type            processor;
        value           nonuniform List<scalar> 5(1.90304e-06 2.41508e-06 2.81295e-06 3.23143e-06 3.60344e-06);
    }
    procBoundary1to3
    {
        type            processor;
        value           nonuniform List<scalar> 5(2.87191e-05 0.000165622 7.62043e-06 1.44776e-07 5.65988e-09);
    }
}


// ************************************************************************* //
