/*--------------------------------*- C++ -*----------------------------------*\
  =========                 |
  \\      /  F ield         | OpenFOAM: The Open Source CFD Toolbox
   \\    /   O peration     | Website:  https://openfoam.org
    \\  /    A nd           | Version:  8
     \\/     M anipulation  |
\*---------------------------------------------------------------------------*/
FoamFile
{
    version     2.0;
    format      ascii;
    class       volScalarField;
    location    "0.05";
    object      OH;
}
// * * * * * * * * * * * * * * * * * * * * * * * * * * * * * * * * * * * * * //

dimensions      [0 0 0 0 0 0 0];

internalField   nonuniform List<scalar> 
25
(
9.42165e-05
0.000688247
3.04485e-05
5.65329e-07
2.02231e-08
0.000113335
0.000755288
3.31234e-05
6.05295e-07
2.04667e-08
0.000125811
0.000776512
3.47659e-05
6.40155e-07
2.16393e-08
0.000140403
0.000826187
3.76811e-05
6.99728e-07
2.37849e-08
0.000155218
0.000898479
4.13268e-05
7.72416e-07
2.59273e-08
)
;

boundaryField
{
    fuel
    {
        type            fixedValue;
        value           nonuniform List<scalar> 0();
    }
    air
    {
        type            fixedValue;
        value           uniform 0;
    }
    outlet
    {
        type            inletOutlet;
        inletValue      uniform 0;
        value           nonuniform List<scalar> 5(9.42165e-05 0.000688247 3.04485e-05 5.65329e-07 2.02231e-08);
    }
    frontAndBack
    {
        type            empty;
    }
    procBoundary1to0
    {
        type            processor;
        value           nonuniform List<scalar> 5(9.42466e-06 1.2315e-05 1.47653e-05 1.72818e-05 1.94583e-05);
    }
    procBoundary1to3
    {
        type            processor;
        value           nonuniform List<scalar> 5(0.000155208 0.000898421 4.13235e-05 7.72337e-07 2.59225e-08);
    }
}


// ************************************************************************* //
