/*--------------------------------*- C++ -*----------------------------------*\
  =========                 |
  \\      /  F ield         | OpenFOAM: The Open Source CFD Toolbox
   \\    /   O peration     | Website:  https://openfoam.org
    \\  /    A nd           | Version:  8
     \\/     M anipulation  |
\*---------------------------------------------------------------------------*/
FoamFile
{
    version     2.0;
    format      ascii;
    class       volScalarField;
    location    "0.05";
    object      T;
}
// * * * * * * * * * * * * * * * * * * * * * * * * * * * * * * * * * * * * * //

dimensions      [0 0 0 1 0 0 0];

internalField   nonuniform List<scalar> 
25
(
1394.18
1618.69
876.981
488.323
332.315
1423.02
1629.1
878.637
488.372
333.012
1462.43
1651.91
889.13
492.395
334.054
1506.11
1676.6
901.572
496.406
334.874
1535.25
1692.21
910.803
499.773
335.7
)
;

boundaryField
{
    fuel
    {
        type            fixedValue;
        value           nonuniform List<scalar> 0();
    }
    air
    {
        type            fixedValue;
        value           uniform 293;
    }
    outlet
    {
        type            inletOutlet;
        inletValue      uniform 293;
        value           nonuniform List<scalar> 5(1377.49 1605.38 874.189 493.508 333.947);
    }
    frontAndBack
    {
        type            empty;
    }
    procBoundary1to0
    {
        type            processor;
        value           nonuniform List<scalar> 5(1136.98 1160.13 1185.01 1209.8 1225.51);
    }
    procBoundary1to3
    {
        type            processor;
        value           nonuniform List<scalar> 5(1535.25 1692.2 910.789 499.767 335.699);
    }
}


// ************************************************************************* //
