/*--------------------------------*- C++ -*----------------------------------*\
  =========                 |
  \\      /  F ield         | OpenFOAM: The Open Source CFD Toolbox
   \\    /   O peration     | Website:  https://openfoam.org
    \\  /    A nd           | Version:  8
     \\/     M anipulation  |
\*---------------------------------------------------------------------------*/
FoamFile
{
    version     2.0;
    format      ascii;
    class       volVectorField;
    location    "0.05";
    object      U;
}
// * * * * * * * * * * * * * * * * * * * * * * * * * * * * * * * * * * * * * //

dimensions      [0 1 -1 0 0 0 0];

internalField   nonuniform List<vector> 
25
(
(-0.0998131 -0.322562 0)
(-0.123021 -0.324607 0)
(-0.110275 -0.258605 0)
(-0.106073 -0.14972 0)
(-0.100515 -0.0505511 0)
(-0.121904 -0.23592 0)
(-0.148363 -0.229499 0)
(-0.122848 -0.168449 0)
(-0.108671 -0.0954782 0)
(-0.100295 -0.032767 0)
(-0.135586 -0.175002 0)
(-0.164466 -0.168616 0)
(-0.128578 -0.125121 0)
(-0.108758 -0.0707099 0)
(-0.0995807 -0.0232993 0)
(-0.144508 -0.105998 0)
(-0.172737 -0.100933 0)
(-0.132042 -0.0740961 0)
(-0.109689 -0.041773 0)
(-0.0997332 -0.01402 0)
(-0.148654 -0.0357127 0)
(-0.176004 -0.0339064 3.04288e-29)
(-0.133334 -0.0247806 0)
(-0.109265 -0.0136496 -2.22698e-29)
(-0.100877 -0.00518809 0)
)
;

boundaryField
{
    fuel
    {
        type            fixedValue;
        value           nonuniform List<vector> 0();
    }
    air
    {
        type            fixedValue;
        value           uniform (-0.1 0 0);
    }
    outlet
    {
        type            pressureInletOutletVelocity;
        value           nonuniform List<vector> 5((-0.0998131 -0.322562 0) (-0.123021 -0.324607 0) (-0.110275 -0.258605 0) (-0.106073 -0.14972 0) (-0.100515 -0.0505511 0));
    }
    frontAndBack
    {
        type            empty;
    }
    procBoundary1to0
    {
        type            processor;
        value           nonuniform List<vector> 5((-0.0363914 -0.30647 0) (-0.0469961 -0.224672 0) (-0.0548647 -0.168015 0) (-0.0609603 -0.102071 0) (-0.064189 -0.0344525 0));
    }
    procBoundary1to3
    {
        type            processor;
        value           nonuniform List<vector> 5((-0.148792 0.0358283 0) (-0.175949 0.0339056 3.04281e-29) (-0.133307 0.0248318 0) (-0.109251 0.0136799 -2.22696e-29) (-0.100881 0.00516019 0));
    }
}


// ************************************************************************* //
