/*--------------------------------*- C++ -*----------------------------------*\
  =========                 |
  \\      /  F ield         | OpenFOAM: The Open Source CFD Toolbox
   \\    /   O peration     | Website:  https://openfoam.org
    \\  /    A nd           | Version:  8
     \\/     M anipulation  |
\*---------------------------------------------------------------------------*/
FoamFile
{
    version     2.0;
    format      ascii;
    class       volScalarField;
    location    "0.05";
    object      C2H;
}
// * * * * * * * * * * * * * * * * * * * * * * * * * * * * * * * * * * * * * //

dimensions      [0 0 0 0 0 0 0];

internalField   nonuniform List<scalar> 
25
(
5.84524e-18
4.332e-16
1.95554e-14
5.29392e-13
7.40298e-12
1.74708e-17
1.29002e-15
5.88971e-14
1.55467e-12
2.05799e-11
5.2064e-17
3.83799e-15
1.77098e-13
4.9112e-12
6.56171e-11
1.38592e-16
1.0331e-14
4.89405e-13
1.43164e-11
1.99331e-10
2.65766e-16
1.99947e-14
9.6252e-13
2.89977e-11
4.18393e-10
)
;

boundaryField
{
    fuel
    {
        type            fixedValue;
        value           uniform 0;
    }
    air
    {
        type            fixedValue;
        value           nonuniform List<scalar> 0();
    }
    outlet
    {
        type            inletOutlet;
        inletValue      uniform 0;
        value           nonuniform List<scalar> 5(5.84524e-18 4.332e-16 1.95554e-14 5.29392e-13 7.40298e-12);
    }
    frontAndBack
    {
        type            empty;
    }
    procBoundary0to1
    {
        type            processor;
        value           nonuniform List<scalar> 5(4.75056e-11 1.27031e-10 4.32565e-10 1.50151e-09 3.40881e-09);
    }
    procBoundary0to2
    {
        type            processor;
        value           nonuniform List<scalar> 5(2.65748e-16 1.99934e-14 9.62456e-13 2.89956e-11 4.18373e-10);
    }
}


// ************************************************************************* //
