/*--------------------------------*- C++ -*----------------------------------*\
  =========                 |
  \\      /  F ield         | OpenFOAM: The Open Source CFD Toolbox
   \\    /   O peration     | Website:  https://openfoam.org
    \\  /    A nd           | Version:  8
     \\/     M anipulation  |
\*---------------------------------------------------------------------------*/
FoamFile
{
    version     2.0;
    format      ascii;
    class       volScalarField;
    location    "0.05";
    object      C2H2;
}
// * * * * * * * * * * * * * * * * * * * * * * * * * * * * * * * * * * * * * //

dimensions      [0 0 0 0 0 0 0];

internalField   nonuniform List<scalar> 
25
(
5.52872e-05
0.000297849
0.000779187
0.00130335
0.00127861
8.17584e-05
0.000390782
0.000988978
0.0015631
0.00155866
0.00011684
0.000505888
0.00119995
0.00189505
0.00192279
0.000147501
0.000615761
0.00141766
0.00224121
0.00240013
0.000165849
0.000681507
0.00155683
0.0024852
0.00282291
)
;

boundaryField
{
    fuel
    {
        type            fixedValue;
        value           uniform 0;
    }
    air
    {
        type            fixedValue;
        value           nonuniform List<scalar> 0();
    }
    outlet
    {
        type            inletOutlet;
        inletValue      uniform 0;
        value           nonuniform List<scalar> 5(5.52872e-05 0.000297849 0.000779187 0.00130335 0.00127861);
    }
    frontAndBack
    {
        type            empty;
    }
    procBoundary0to1
    {
        type            processor;
        value           nonuniform List<scalar> 5(0.000717974 0.000878047 0.0011961 0.00178828 0.00247612);
    }
    procBoundary0to2
    {
        type            processor;
        value           nonuniform List<scalar> 5(0.000165851 0.000681514 0.00155684 0.0024852 0.00282291);
    }
}


// ************************************************************************* //
