/*--------------------------------*- C++ -*----------------------------------*\
  =========                 |
  \\      /  F ield         | OpenFOAM: The Open Source CFD Toolbox
   \\    /   O peration     | Website:  https://openfoam.org
    \\  /    A nd           | Version:  8
     \\/     M anipulation  |
\*---------------------------------------------------------------------------*/
FoamFile
{
    version     2.0;
    format      ascii;
    class       volScalarField;
    location    "0.05";
    object      C2H5;
}
// * * * * * * * * * * * * * * * * * * * * * * * * * * * * * * * * * * * * * //

dimensions      [0 0 0 0 0 0 0];

internalField   nonuniform List<scalar> 
25
(
9.08641e-10
2.34389e-09
2.04427e-09
4.54163e-09
3.07008e-08
1.28001e-09
3.09668e-09
3.13058e-09
7.26619e-09
5.06174e-08
1.80009e-09
4.15191e-09
4.60885e-09
1.28928e-08
1.01381e-07
2.26949e-09
5.29129e-09
6.64441e-09
2.26087e-08
2.02439e-07
2.55262e-09
6.04188e-09
8.25154e-09
3.20358e-08
3.14706e-07
)
;

boundaryField
{
    fuel
    {
        type            fixedValue;
        value           uniform 0;
    }
    air
    {
        type            fixedValue;
        value           nonuniform List<scalar> 0();
    }
    outlet
    {
        type            inletOutlet;
        inletValue      uniform 0;
        value           nonuniform List<scalar> 5(9.08641e-10 2.34389e-09 2.04427e-09 4.54163e-09 3.07008e-08);
    }
    frontAndBack
    {
        type            empty;
    }
    procBoundary0to1
    {
        type            processor;
        value           nonuniform List<scalar> 5(1.40716e-07 2.8515e-07 6.92601e-07 1.56388e-06 2.31888e-06);
    }
    procBoundary0to2
    {
        type            processor;
        value           nonuniform List<scalar> 5(2.55299e-09 6.04235e-09 8.25155e-09 3.20336e-08 3.14689e-07);
    }
}


// ************************************************************************* //
