/*--------------------------------*- C++ -*----------------------------------*\
  =========                 |
  \\      /  F ield         | OpenFOAM: The Open Source CFD Toolbox
   \\    /   O peration     | Website:  https://openfoam.org
    \\  /    A nd           | Version:  8
     \\/     M anipulation  |
\*---------------------------------------------------------------------------*/
FoamFile
{
    version     2.0;
    format      ascii;
    class       volScalarField;
    location    "0.05";
    object      C3H8;
}
// * * * * * * * * * * * * * * * * * * * * * * * * * * * * * * * * * * * * * //

dimensions      [0 0 0 0 0 0 0];

internalField   nonuniform List<scalar> 
25
(
1.31338e-08
6.01141e-08
1.81241e-07
5.55286e-07
1.35565e-06
1.79317e-08
7.45018e-08
2.2231e-07
6.91148e-07
1.78887e-06
2.38961e-08
9.20743e-08
2.63545e-07
8.52994e-07
2.29701e-06
2.88327e-08
1.08162e-07
3.02128e-07
1.00014e-06
2.83219e-06
3.16378e-08
1.16949e-07
3.1774e-07
1.01251e-06
2.71481e-06
)
;

boundaryField
{
    fuel
    {
        type            fixedValue;
        value           uniform 0;
    }
    air
    {
        type            fixedValue;
        value           nonuniform List<scalar> 0();
    }
    outlet
    {
        type            inletOutlet;
        inletValue      uniform 0;
        value           nonuniform List<scalar> 5(1.31338e-08 6.01141e-08 1.81241e-07 5.55286e-07 1.35565e-06);
    }
    frontAndBack
    {
        type            empty;
    }
    procBoundary0to1
    {
        type            processor;
        value           nonuniform List<scalar> 5(1.30617e-06 1.61972e-06 2.27181e-06 3.11536e-06 3.25131e-06);
    }
    procBoundary0to2
    {
        type            processor;
        value           nonuniform List<scalar> 5(3.16388e-08 1.16953e-07 3.17747e-07 1.01251e-06 2.71476e-06);
    }
}


// ************************************************************************* //
