/*--------------------------------*- C++ -*----------------------------------*\
  =========                 |
  \\      /  F ield         | OpenFOAM: The Open Source CFD Toolbox
   \\    /   O peration     | Website:  https://openfoam.org
    \\  /    A nd           | Version:  8
     \\/     M anipulation  |
\*---------------------------------------------------------------------------*/
FoamFile
{
    version     2.0;
    format      ascii;
    class       volScalarField;
    location    "0.05";
    object      CH;
}
// * * * * * * * * * * * * * * * * * * * * * * * * * * * * * * * * * * * * * //

dimensions      [0 0 0 0 0 0 0];

internalField   nonuniform List<scalar> 
25
(
1.47763e-20
1.04936e-18
4.27235e-17
9.86875e-16
9.70082e-15
6.0202e-20
4.31911e-18
1.84702e-16
4.29746e-15
4.44255e-14
2.34893e-19
1.69985e-17
7.53793e-16
1.94394e-14
2.27712e-13
8.02618e-19
5.93144e-17
2.76275e-15
7.84753e-14
1.03755e-12
1.94941e-18
1.46853e-16
7.08384e-15
2.14153e-13
3.10773e-12
)
;

boundaryField
{
    fuel
    {
        type            fixedValue;
        value           uniform 0;
    }
    air
    {
        type            fixedValue;
        value           nonuniform List<scalar> 0();
    }
    outlet
    {
        type            inletOutlet;
        inletValue      uniform 0;
        value           nonuniform List<scalar> 5(1.47763e-20 1.04936e-18 4.27235e-17 9.86875e-16 9.70082e-15);
    }
    frontAndBack
    {
        type            empty;
    }
    procBoundary0to1
    {
        type            processor;
        value           nonuniform List<scalar> 5(3.53784e-14 1.70001e-13 1.18429e-12 7.24985e-12 2.56861e-11);
    }
    procBoundary0to2
    {
        type            processor;
        value           nonuniform List<scalar> 5(1.94923e-18 1.4684e-16 7.08321e-15 2.14134e-13 3.10754e-12);
    }
}


// ************************************************************************* //
