/*--------------------------------*- C++ -*----------------------------------*\
  =========                 |
  \\      /  F ield         | OpenFOAM: The Open Source CFD Toolbox
   \\    /   O peration     | Website:  https://openfoam.org
    \\  /    A nd           | Version:  8
     \\/     M anipulation  |
\*---------------------------------------------------------------------------*/
FoamFile
{
    version     2.0;
    format      ascii;
    class       volScalarField;
    location    "0.05";
    object      CH2CHO;
}
// * * * * * * * * * * * * * * * * * * * * * * * * * * * * * * * * * * * * * //

dimensions      [0 0 0 0 0 0 0];

internalField   nonuniform List<scalar> 
25
(
9.57817e-11
4.31014e-10
1.28161e-09
1.75558e-09
7.69872e-10
1.41454e-10
6.33531e-10
2.10755e-09
2.43403e-09
1.51227e-09
2.10988e-10
9.49526e-10
3.28964e-09
3.33489e-09
3.33036e-09
2.87856e-10
1.36677e-09
4.98502e-09
4.35993e-09
7.05174e-09
3.42398e-10
1.68515e-09
6.3316e-09
5.03283e-09
1.15547e-08
)
;

boundaryField
{
    fuel
    {
        type            fixedValue;
        value           uniform 0;
    }
    air
    {
        type            fixedValue;
        value           nonuniform List<scalar> 0();
    }
    outlet
    {
        type            inletOutlet;
        inletValue      uniform 0;
        value           nonuniform List<scalar> 5(9.57817e-11 4.31014e-10 1.28161e-09 1.75558e-09 7.69872e-10);
    }
    frontAndBack
    {
        type            empty;
    }
    procBoundary0to1
    {
        type            processor;
        value           nonuniform List<scalar> 5(3.37344e-09 7.69591e-09 2.09644e-08 5.19479e-08 7.87364e-08);
    }
    procBoundary0to2
    {
        type            processor;
        value           nonuniform List<scalar> 5(3.42413e-10 1.68521e-09 6.3316e-09 5.03281e-09 1.15541e-08);
    }
}


// ************************************************************************* //
