/*--------------------------------*- C++ -*----------------------------------*\
  =========                 |
  \\      /  F ield         | OpenFOAM: The Open Source CFD Toolbox
   \\    /   O peration     | Website:  https://openfoam.org
    \\  /    A nd           | Version:  8
     \\/     M anipulation  |
\*---------------------------------------------------------------------------*/
FoamFile
{
    version     2.0;
    format      ascii;
    class       volScalarField;
    location    "0.05";
    object      CH2CO;
}
// * * * * * * * * * * * * * * * * * * * * * * * * * * * * * * * * * * * * * //

dimensions      [0 0 0 0 0 0 0];

internalField   nonuniform List<scalar> 
25
(
1.75705e-07
1.97095e-06
1.27561e-05
5.18494e-05
0.000115994
2.39631e-07
2.5683e-06
1.69167e-05
6.92841e-05
0.000167375
3.17613e-07
3.26815e-06
2.13377e-05
9.25404e-05
0.000236907
3.80697e-07
3.89924e-06
2.56768e-05
0.00011637
0.000315684
4.14072e-07
4.22416e-06
2.79676e-05
0.000128612
0.000354379
)
;

boundaryField
{
    fuel
    {
        type            fixedValue;
        value           uniform 0;
    }
    air
    {
        type            fixedValue;
        value           nonuniform List<scalar> 0();
    }
    outlet
    {
        type            inletOutlet;
        inletValue      uniform 0;
        value           nonuniform List<scalar> 5(1.75705e-07 1.97095e-06 1.27561e-05 5.18494e-05 0.000115994);
    }
    frontAndBack
    {
        type            empty;
    }
    procBoundary0to1
    {
        type            processor;
        value           nonuniform List<scalar> 5(0.000125634 0.000191072 0.00031754 0.000490201 0.000578504);
    }
    procBoundary0to2
    {
        type            processor;
        value           nonuniform List<scalar> 5(4.14071e-07 4.22416e-06 2.79677e-05 0.000128612 0.000354379);
    }
}


// ************************************************************************* //
