/*--------------------------------*- C++ -*----------------------------------*\
  =========                 |
  \\      /  F ield         | OpenFOAM: The Open Source CFD Toolbox
   \\    /   O peration     | Website:  https://openfoam.org
    \\  /    A nd           | Version:  8
     \\/     M anipulation  |
\*---------------------------------------------------------------------------*/
FoamFile
{
    version     2.0;
    format      ascii;
    class       volScalarField;
    location    "0.05";
    object      CO2;
}
// * * * * * * * * * * * * * * * * * * * * * * * * * * * * * * * * * * * * * //

dimensions      [0 0 0 0 0 0 0];

internalField   nonuniform List<scalar> 
25
(
1.02194e-05
0.000128592
0.000979992
0.004941
0.0161204
1.30351e-05
0.000154638
0.00114994
0.00563172
0.017981
1.65236e-05
0.000185752
0.00132711
0.00644932
0.019799
1.9593e-05
0.000216004
0.00150775
0.00723617
0.0214258
2.14457e-05
0.000234325
0.00162169
0.00771552
0.022414
)
;

boundaryField
{
    fuel
    {
        type            fixedValue;
        value           uniform 0;
    }
    air
    {
        type            fixedValue;
        value           nonuniform List<scalar> 0();
    }
    outlet
    {
        type            inletOutlet;
        inletValue      uniform 0;
        value           nonuniform List<scalar> 5(1.02194e-05 0.000128592 0.000979992 0.004941 0.0161204);
    }
    frontAndBack
    {
        type            empty;
    }
    procBoundary0to1
    {
        type            processor;
        value           nonuniform List<scalar> 5(0.0327765 0.0350231 0.0375545 0.0398189 0.0411946);
    }
    procBoundary0to2
    {
        type            processor;
        value           nonuniform List<scalar> 5(2.14458e-05 0.000234327 0.0016217 0.00771554 0.0224142);
    }
}


// ************************************************************************* //
