/*--------------------------------*- C++ -*----------------------------------*\
  =========                 |
  \\      /  F ield         | OpenFOAM: The Open Source CFD Toolbox
   \\    /   O peration     | Website:  https://openfoam.org
    \\  /    A nd           | Version:  8
     \\/     M anipulation  |
\*---------------------------------------------------------------------------*/
FoamFile
{
    version     2.0;
    format      ascii;
    class       volScalarField;
    location    "0.05";
    object      H2O;
}
// * * * * * * * * * * * * * * * * * * * * * * * * * * * * * * * * * * * * * //

dimensions      [0 0 0 0 0 0 0];

internalField   nonuniform List<scalar> 
25
(
1.73312e-05
0.000198984
0.00133535
0.00587983
0.0166921
2.29953e-05
0.000248041
0.00163096
0.00694444
0.0193826
3.0227e-05
0.000307924
0.00194631
0.00828722
0.0224222
3.67207e-05
0.000367158
0.00227628
0.00966313
0.0256263
4.06778e-05
0.000403238
0.00248746
0.0105405
0.0277401
)
;

boundaryField
{
    fuel
    {
        type            fixedValue;
        value           uniform 0;
    }
    air
    {
        type            fixedValue;
        value           nonuniform List<scalar> 0();
    }
    outlet
    {
        type            inletOutlet;
        inletValue      uniform 0;
        value           nonuniform List<scalar> 5(1.73312e-05 0.000198984 0.00133535 0.00587983 0.0166921);
    }
    frontAndBack
    {
        type            empty;
    }
    procBoundary0to1
    {
        type            processor;
        value           nonuniform List<scalar> 5(0.0303873 0.0334793 0.0378957 0.0431485 0.0468884);
    }
    procBoundary0to2
    {
        type            processor;
        value           nonuniform List<scalar> 5(4.06772e-05 0.000403236 0.00248746 0.0105404 0.0277403);
    }
}


// ************************************************************************* //
