/*--------------------------------*- C++ -*----------------------------------*\
  =========                 |
  \\      /  F ield         | OpenFOAM: The Open Source CFD Toolbox
   \\    /   O peration     | Website:  https://openfoam.org
    \\  /    A nd           | Version:  8
     \\/     M anipulation  |
\*---------------------------------------------------------------------------*/
FoamFile
{
    version     2.0;
    format      ascii;
    class       volScalarField;
    location    "0.05";
    object      HCCO;
}
// * * * * * * * * * * * * * * * * * * * * * * * * * * * * * * * * * * * * * //

dimensions      [0 0 0 0 0 0 0];

internalField   nonuniform List<scalar> 
25
(
1.91092e-12
4.5192e-13
5.16006e-12
1.38557e-10
1.8918e-09
2.43981e-12
6.90412e-13
1.56831e-11
4.09436e-10
5.26409e-09
3.17662e-12
1.46017e-12
4.84652e-11
1.33466e-09
1.75118e-08
4.19112e-12
3.46485e-12
1.37924e-10
4.02971e-09
5.58387e-08
4.97323e-12
6.35461e-12
2.7459e-10
8.27296e-09
1.19178e-07
)
;

boundaryField
{
    fuel
    {
        type            fixedValue;
        value           uniform 0;
    }
    air
    {
        type            fixedValue;
        value           nonuniform List<scalar> 0();
    }
    outlet
    {
        type            inletOutlet;
        inletValue      uniform 0;
        value           nonuniform List<scalar> 5(1.91092e-12 4.5192e-13 5.16006e-12 1.38557e-10 1.8918e-09);
    }
    frontAndBack
    {
        type            empty;
    }
    procBoundary0to1
    {
        type            processor;
        value           nonuniform List<scalar> 5(1.03258e-08 3.01151e-08 1.12922e-07 4.24498e-07 9.62626e-07);
    }
    procBoundary0to2
    {
        type            processor;
        value           nonuniform List<scalar> 5(4.97335e-12 6.35462e-12 2.74576e-10 8.27253e-09 1.19175e-07);
    }
}


// ************************************************************************* //
