/*--------------------------------*- C++ -*----------------------------------*\
  =========                 |
  \\      /  F ield         | OpenFOAM: The Open Source CFD Toolbox
   \\    /   O peration     | Website:  https://openfoam.org
    \\  /    A nd           | Version:  8
     \\/     M anipulation  |
\*---------------------------------------------------------------------------*/
FoamFile
{
    version     2.0;
    format      ascii;
    class       volScalarField;
    location    "0.05";
    object      HNO;
}
// * * * * * * * * * * * * * * * * * * * * * * * * * * * * * * * * * * * * * //

dimensions      [0 0 0 0 0 0 0];

internalField   nonuniform List<scalar> 
25
(
3.65023e-13
2.68001e-12
9.50223e-12
1.25332e-11
4.00929e-11
4.82183e-13
3.39601e-12
1.20721e-11
1.51229e-11
5.61723e-11
6.57806e-13
4.40288e-12
1.48935e-11
1.84621e-11
8.01599e-11
8.29173e-13
5.52647e-12
1.8159e-11
2.23885e-11
1.11643e-10
9.41962e-13
6.28186e-12
2.03374e-11
2.42404e-11
1.24938e-10
)
;

boundaryField
{
    fuel
    {
        type            fixedValue;
        value           uniform 0;
    }
    air
    {
        type            fixedValue;
        value           nonuniform List<scalar> 0();
    }
    outlet
    {
        type            inletOutlet;
        inletValue      uniform 0;
        value           nonuniform List<scalar> 5(3.65023e-13 2.68001e-12 9.50223e-12 1.25332e-11 4.00929e-11);
    }
    frontAndBack
    {
        type            empty;
    }
    procBoundary0to1
    {
        type            processor;
        value           nonuniform List<scalar> 5(2.02361e-10 2.83248e-10 4.18101e-10 6.2107e-10 7.72925e-10);
    }
    procBoundary0to2
    {
        type            processor;
        value           nonuniform List<scalar> 5(9.42059e-13 6.28177e-12 2.03355e-11 2.42354e-11 1.24907e-10);
    }
}


// ************************************************************************* //
