/*--------------------------------*- C++ -*----------------------------------*\
  =========                 |
  \\      /  F ield         | OpenFOAM: The Open Source CFD Toolbox
   \\    /   O peration     | Website:  https://openfoam.org
    \\  /    A nd           | Version:  8
     \\/     M anipulation  |
\*---------------------------------------------------------------------------*/
FoamFile
{
    version     2.0;
    format      ascii;
    class       volScalarField;
    location    "0.05";
    object      HO2;
}
// * * * * * * * * * * * * * * * * * * * * * * * * * * * * * * * * * * * * * //

dimensions      [0 0 0 0 0 0 0];

internalField   nonuniform List<scalar> 
25
(
5.13589e-10
4.75377e-09
2.53442e-08
1.21897e-07
6.63881e-07
6.66149e-10
5.93791e-09
3.21757e-08
1.53044e-07
8.54696e-07
8.6283e-10
7.42802e-09
3.97342e-08
1.90333e-07
1.0555e-06
1.03913e-09
8.91205e-09
4.75499e-08
2.20767e-07
1.15846e-06
1.14815e-09
9.83113e-09
5.2494e-08
2.33225e-07
1.13905e-06
)
;

boundaryField
{
    fuel
    {
        type            fixedValue;
        value           uniform 0;
    }
    air
    {
        type            fixedValue;
        value           nonuniform List<scalar> 0();
    }
    outlet
    {
        type            inletOutlet;
        inletValue      uniform 0;
        value           nonuniform List<scalar> 5(5.13589e-10 4.75377e-09 2.53442e-08 1.21897e-07 6.63881e-07);
    }
    frontAndBack
    {
        type            empty;
    }
    procBoundary0to1
    {
        type            processor;
        value           nonuniform List<scalar> 5(3.02902e-06 3.84179e-06 4.90918e-06 5.55287e-06 5.28501e-06);
    }
    procBoundary0to2
    {
        type            processor;
        value           nonuniform List<scalar> 5(1.14816e-09 9.83137e-09 5.24959e-08 2.33232e-07 1.1391e-06);
    }
}


// ************************************************************************* //
