/*--------------------------------*- C++ -*----------------------------------*\
  =========                 |
  \\      /  F ield         | OpenFOAM: The Open Source CFD Toolbox
   \\    /   O peration     | Website:  https://openfoam.org
    \\  /    A nd           | Version:  8
     \\/     M anipulation  |
\*---------------------------------------------------------------------------*/
FoamFile
{
    version     2.0;
    format      ascii;
    class       volScalarField;
    location    "0.05";
    object      N2;
}
// * * * * * * * * * * * * * * * * * * * * * * * * * * * * * * * * * * * * * //

dimensions      [0 0 0 0 0 0 0];

internalField   nonuniform List<scalar> 
25
(
0.0624025
0.221876
0.444799
0.657321
0.799289
0.0543991
0.199115
0.411577
0.637679
0.788369
0.0488791
0.18312
0.392409
0.621977
0.779012
0.0457779
0.174132
0.380081
0.612802
0.771778
0.0446477
0.170789
0.375068
0.60868
0.767917
)
;

boundaryField
{
    fuel
    {
        type            fixedValue;
        value           uniform 0;
    }
    air
    {
        type            fixedValue;
        value           nonuniform List<scalar> 0();
    }
    outlet
    {
        type            inletOutlet;
        inletValue      uniform 1;
        value           nonuniform List<scalar> 5(0.0624025 0.221876 0.444799 0.657321 0.799289);
    }
    frontAndBack
    {
        type            empty;
    }
    procBoundary0to1
    {
        type            processor;
        value           nonuniform List<scalar> 5(0.840054 0.833607 0.826773 0.821385 0.818414);
    }
    procBoundary0to2
    {
        type            processor;
        value           nonuniform List<scalar> 5(0.0446479 0.170789 0.375066 0.608677 0.767913);
    }
}


// ************************************************************************* //
