/*--------------------------------*- C++ -*----------------------------------*\
  =========                 |
  \\      /  F ield         | OpenFOAM: The Open Source CFD Toolbox
   \\    /   O peration     | Website:  https://openfoam.org
    \\  /    A nd           | Version:  8
     \\/     M anipulation  |
\*---------------------------------------------------------------------------*/
FoamFile
{
    version     2.0;
    format      ascii;
    class       volScalarField;
    location    "0.05";
    object      NH;
}
// * * * * * * * * * * * * * * * * * * * * * * * * * * * * * * * * * * * * * //

dimensions      [0 0 0 0 0 0 0];

internalField   nonuniform List<scalar> 
25
(
2.59174e-13
1.47e-13
2.2133e-13
1.60993e-12
6.72495e-12
2.45247e-13
1.36438e-13
3.47766e-13
2.46204e-12
1.15045e-11
2.3115e-13
1.37295e-13
5.41253e-13
3.99025e-12
2.15091e-11
2.21312e-13
1.5038e-13
8.26752e-13
6.34296e-12
3.98815e-11
2.13875e-13
1.62836e-13
1.05383e-12
8.10077e-12
5.40026e-11
)
;

boundaryField
{
    fuel
    {
        type            fixedValue;
        value           uniform 0;
    }
    air
    {
        type            fixedValue;
        value           nonuniform List<scalar> 0();
    }
    outlet
    {
        type            inletOutlet;
        inletValue      uniform 0;
        value           nonuniform List<scalar> 5(2.59174e-13 1.47e-13 2.2133e-13 1.60993e-12 6.72495e-12);
    }
    frontAndBack
    {
        type            empty;
    }
    procBoundary0to1
    {
        type            processor;
        value           nonuniform List<scalar> 5(2.44487e-11 4.32667e-11 9.50112e-11 2.1248e-10 3.40425e-10);
    }
    procBoundary0to2
    {
        type            processor;
        value           nonuniform List<scalar> 5(2.13979e-13 1.62868e-13 1.05376e-12 8.09906e-12 5.39887e-11);
    }
}


// ************************************************************************* //
