/*--------------------------------*- C++ -*----------------------------------*\
  =========                 |
  \\      /  F ield         | OpenFOAM: The Open Source CFD Toolbox
   \\    /   O peration     | Website:  https://openfoam.org
    \\  /    A nd           | Version:  8
     \\/     M anipulation  |
\*---------------------------------------------------------------------------*/
FoamFile
{
    version     2.0;
    format      ascii;
    class       volScalarField;
    location    "0.05";
    object      NO;
}
// * * * * * * * * * * * * * * * * * * * * * * * * * * * * * * * * * * * * * //

dimensions      [0 0 0 0 0 0 0];

internalField   nonuniform List<scalar> 
25
(
4.5749e-08
3.76553e-07
1.68477e-06
4.98533e-06
1.02667e-05
5.8646e-08
4.41136e-07
1.89568e-06
5.46314e-06
1.13642e-05
7.41882e-08
5.1513e-07
2.09531e-06
5.98598e-06
1.23621e-05
8.64077e-08
5.80553e-07
2.28147e-06
6.41052e-06
1.29864e-05
9.35331e-08
6.17733e-07
2.38864e-06
6.6114e-06
1.30842e-05
)
;

boundaryField
{
    fuel
    {
        type            fixedValue;
        value           uniform 0;
    }
    air
    {
        type            fixedValue;
        value           nonuniform List<scalar> 0();
    }
    outlet
    {
        type            inletOutlet;
        inletValue      uniform 0;
        value           nonuniform List<scalar> 5(4.5749e-08 3.76553e-07 1.68477e-06 4.98533e-06 1.02667e-05);
    }
    frontAndBack
    {
        type            empty;
    }
    procBoundary0to1
    {
        type            processor;
        value           nonuniform List<scalar> 5(1.55093e-05 1.70814e-05 1.88423e-05 1.96153e-05 1.93464e-05);
    }
    procBoundary0to2
    {
        type            processor;
        value           nonuniform List<scalar> 5(9.35312e-08 6.17694e-07 2.38834e-06 6.61009e-06 1.30812e-05);
    }
}


// ************************************************************************* //
