/*--------------------------------*- C++ -*----------------------------------*\
  =========                 |
  \\      /  F ield         | OpenFOAM: The Open Source CFD Toolbox
   \\    /   O peration     | Website:  https://openfoam.org
    \\  /    A nd           | Version:  8
     \\/     M anipulation  |
\*---------------------------------------------------------------------------*/
FoamFile
{
    version     2.0;
    format      ascii;
    class       volScalarField;
    location    "0.05";
    object      NO2;
}
// * * * * * * * * * * * * * * * * * * * * * * * * * * * * * * * * * * * * * //

dimensions      [0 0 0 0 0 0 0];

internalField   nonuniform List<scalar> 
25
(
1.05598e-09
1.48668e-08
1.21116e-07
6.02078e-07
1.75684e-06
1.2491e-09
1.67274e-08
1.30556e-07
6.14022e-07
1.64554e-06
1.48802e-09
1.89487e-08
1.39228e-07
6.1276e-07
1.41182e-06
1.69997e-09
2.10627e-08
1.471e-07
5.95852e-07
1.11242e-06
1.83555e-09
2.23813e-08
1.52158e-07
5.86718e-07
9.80722e-07
)
;

boundaryField
{
    fuel
    {
        type            fixedValue;
        value           uniform 0;
    }
    air
    {
        type            fixedValue;
        value           nonuniform List<scalar> 0();
    }
    outlet
    {
        type            inletOutlet;
        inletValue      uniform 0;
        value           nonuniform List<scalar> 5(1.05598e-09 1.48668e-08 1.21116e-07 6.02078e-07 1.75684e-06);
    }
    frontAndBack
    {
        type            empty;
    }
    procBoundary0to1
    {
        type            processor;
        value           nonuniform List<scalar> 5(1.95375e-06 1.70203e-06 1.21497e-06 7.5291e-07 5.82079e-07);
    }
    procBoundary0to2
    {
        type            processor;
        value           nonuniform List<scalar> 5(1.83533e-09 2.23782e-08 1.52132e-07 5.8659e-07 9.80489e-07);
    }
}


// ************************************************************************* //
