/*--------------------------------*- C++ -*----------------------------------*\
  =========                 |
  \\      /  F ield         | OpenFOAM: The Open Source CFD Toolbox
   \\    /   O peration     | Website:  https://openfoam.org
    \\  /    A nd           | Version:  8
     \\/     M anipulation  |
\*---------------------------------------------------------------------------*/
FoamFile
{
    version     2.0;
    format      ascii;
    class       volScalarField;
    location    "0.15";
    object      C2H3;
}
// * * * * * * * * * * * * * * * * * * * * * * * * * * * * * * * * * * * * * //

dimensions      [0 0 0 0 0 0 0];

internalField   nonuniform List<scalar> 
25
(
1.11639e-13
8.8848e-12
4.74855e-10
1.17923e-08
1.07501e-07
9.48392e-14
7.49025e-12
3.97298e-10
9.69258e-09
9.09386e-08
8.29116e-14
6.50183e-12
3.41458e-10
8.1364e-09
7.57117e-08
7.54677e-14
5.90496e-12
3.09682e-10
7.30685e-09
6.75772e-08
7.14754e-14
5.57535e-12
2.91076e-10
6.79317e-09
6.2495e-08
)
;

boundaryField
{
    fuel
    {
        type            fixedValue;
        value           uniform 0;
    }
    air
    {
        type            fixedValue;
        value           nonuniform List<scalar> 0();
    }
    outlet
    {
        type            inletOutlet;
        inletValue      uniform 0;
        value           nonuniform List<scalar> 5(1.11639e-13 8.8848e-12 4.74855e-10 1.17923e-08 1.07501e-07);
    }
    frontAndBack
    {
        type            empty;
    }
    procBoundary0to1
    {
        type            processor;
        value           nonuniform List<scalar> 5(6.11316e-07 4.95418e-07 4.24579e-07 3.74333e-07 3.43605e-07);
    }
    procBoundary0to2
    {
        type            processor;
        value           nonuniform List<scalar> 5(7.10018e-14 5.53839e-12 2.89144e-10 6.74279e-09 6.20508e-08);
    }
}


// ************************************************************************* //
