/*--------------------------------*- C++ -*----------------------------------*\
  =========                 |
  \\      /  F ield         | OpenFOAM: The Open Source CFD Toolbox
   \\    /   O peration     | Website:  https://openfoam.org
    \\  /    A nd           | Version:  8
     \\/     M anipulation  |
\*---------------------------------------------------------------------------*/
FoamFile
{
    version     2.0;
    format      ascii;
    class       volScalarField;
    location    "0.15";
    object      C2H5;
}
// * * * * * * * * * * * * * * * * * * * * * * * * * * * * * * * * * * * * * //

dimensions      [0 0 0 0 0 0 0];

internalField   nonuniform List<scalar> 
25
(
1.249e-10
9.24947e-10
5.40393e-09
1.42177e-08
1.05379e-07
1.24699e-10
9.13598e-10
5.25447e-09
1.30895e-08
9.26512e-08
1.25402e-10
9.11716e-10
5.19868e-09
1.29352e-08
8.76801e-08
1.2565e-10
9.06693e-10
5.14862e-09
1.26983e-08
8.31962e-08
1.26135e-10
9.06958e-10
5.13508e-09
1.25121e-08
8.00584e-08
)
;

boundaryField
{
    fuel
    {
        type            fixedValue;
        value           uniform 0;
    }
    air
    {
        type            fixedValue;
        value           nonuniform List<scalar> 0();
    }
    outlet
    {
        type            inletOutlet;
        inletValue      uniform 0;
        value           nonuniform List<scalar> 5(1.249e-10 9.24947e-10 5.40393e-09 1.42177e-08 1.05379e-07);
    }
    frontAndBack
    {
        type            empty;
    }
    procBoundary0to1
    {
        type            processor;
        value           nonuniform List<scalar> 5(4.32715e-07 3.38578e-07 2.8445e-07 2.44288e-07 2.20122e-07);
    }
    procBoundary0to2
    {
        type            processor;
        value           nonuniform List<scalar> 5(1.2602e-10 9.05401e-10 5.12205e-09 1.24443e-08 7.96742e-08);
    }
}


// ************************************************************************* //
