/*--------------------------------*- C++ -*----------------------------------*\
  =========                 |
  \\      /  F ield         | OpenFOAM: The Open Source CFD Toolbox
   \\    /   O peration     | Website:  https://openfoam.org
    \\  /    A nd           | Version:  8
     \\/     M anipulation  |
\*---------------------------------------------------------------------------*/
FoamFile
{
    version     2.0;
    format      ascii;
    class       volScalarField;
    location    "0.15";
    object      CH;
}
// * * * * * * * * * * * * * * * * * * * * * * * * * * * * * * * * * * * * * //

dimensions      [0 0 0 0 0 0 0];

internalField   nonuniform List<scalar> 
25
(
2.41867e-16
1.9314e-14
1.02846e-12
2.70845e-11
2.49e-10
2.43387e-16
1.94048e-14
1.03335e-12
2.73343e-11
2.63985e-10
2.56823e-16
2.05008e-14
1.09738e-12
2.94193e-11
2.93802e-10
2.55405e-16
2.04164e-14
1.09695e-12
2.95726e-11
2.96298e-10
2.46673e-16
1.96707e-14
1.0534e-12
2.83058e-11
2.82861e-10
)
;

boundaryField
{
    fuel
    {
        type            fixedValue;
        value           uniform 0;
    }
    air
    {
        type            fixedValue;
        value           nonuniform List<scalar> 0();
    }
    outlet
    {
        type            inletOutlet;
        inletValue      uniform 0;
        value           nonuniform List<scalar> 5(2.41867e-16 1.9314e-14 1.02846e-12 2.70845e-11 2.49e-10);
    }
    frontAndBack
    {
        type            empty;
    }
    procBoundary0to1
    {
        type            processor;
        value           nonuniform List<scalar> 5(1.41337e-09 1.46911e-09 1.661e-09 1.66016e-09 1.56546e-09);
    }
    procBoundary0to2
    {
        type            processor;
        value           nonuniform List<scalar> 5(2.43603e-16 1.94292e-14 1.04072e-12 2.79797e-11 2.79999e-10);
    }
}


// ************************************************************************* //
