/*--------------------------------*- C++ -*----------------------------------*\
  =========                 |
  \\      /  F ield         | OpenFOAM: The Open Source CFD Toolbox
   \\    /   O peration     | Website:  https://openfoam.org
    \\  /    A nd           | Version:  8
     \\/     M anipulation  |
\*---------------------------------------------------------------------------*/
FoamFile
{
    version     2.0;
    format      ascii;
    class       volScalarField;
    location    "0.15";
    object      CH2CHO;
}
// * * * * * * * * * * * * * * * * * * * * * * * * * * * * * * * * * * * * * //

dimensions      [0 0 0 0 0 0 0];

internalField   nonuniform List<scalar> 
25
(
9.87089e-11
9.45821e-10
1.26203e-08
1.15479e-08
2.43396e-09
9.74005e-11
9.2163e-10
1.21806e-08
1.23809e-08
2.23176e-09
9.74818e-11
9.12757e-10
1.19172e-08
1.24205e-08
1.3158e-09
9.72896e-11
9.02369e-10
1.16872e-08
1.23709e-08
1.21014e-09
9.73992e-11
9.01788e-10
1.16082e-08
1.24479e-08
1.19043e-09
)
;

boundaryField
{
    fuel
    {
        type            fixedValue;
        value           uniform 0;
    }
    air
    {
        type            fixedValue;
        value           nonuniform List<scalar> 0();
    }
    outlet
    {
        type            inletOutlet;
        inletValue      uniform 0;
        value           nonuniform List<scalar> 5(9.87089e-11 9.45821e-10 1.26203e-08 1.15479e-08 2.43396e-09);
    }
    frontAndBack
    {
        type            empty;
    }
    procBoundary0to1
    {
        type            processor;
        value           nonuniform List<scalar> 5(2.21426e-09 1.6305e-09 1.19129e-09 9.61016e-10 8.48481e-10);
    }
    procBoundary0to2
    {
        type            processor;
        value           nonuniform List<scalar> 5(9.73727e-11 9.01481e-10 1.16035e-08 1.2448e-08 1.18892e-09);
    }
}


// ************************************************************************* //
