/*--------------------------------*- C++ -*----------------------------------*\
  =========                 |
  \\      /  F ield         | OpenFOAM: The Open Source CFD Toolbox
   \\    /   O peration     | Website:  https://openfoam.org
    \\  /    A nd           | Version:  8
     \\/     M anipulation  |
\*---------------------------------------------------------------------------*/
FoamFile
{
    version     2.0;
    format      ascii;
    class       volScalarField;
    location    "0.15";
    object      CH3OH;
}
// * * * * * * * * * * * * * * * * * * * * * * * * * * * * * * * * * * * * * //

dimensions      [0 0 0 0 0 0 0];

internalField   nonuniform List<scalar> 
25
(
3.11358e-08
3.09742e-07
1.67792e-06
1.6609e-07
4.33659e-07
3.11472e-08
3.09182e-07
1.66744e-06
2.20053e-07
3.97176e-07
3.13857e-08
3.11936e-07
1.68565e-06
3.39033e-07
3.63447e-07
3.13845e-08
3.11581e-07
1.69089e-06
4.29719e-07
3.40243e-07
3.15772e-08
3.13604e-07
1.7005e-06
4.77936e-07
3.28567e-07
)
;

boundaryField
{
    fuel
    {
        type            fixedValue;
        value           uniform 0;
    }
    air
    {
        type            fixedValue;
        value           nonuniform List<scalar> 0();
    }
    outlet
    {
        type            inletOutlet;
        inletValue      uniform 0;
        value           nonuniform List<scalar> 5(3.11358e-08 3.09742e-07 1.67792e-06 1.6609e-07 4.33659e-07);
    }
    frontAndBack
    {
        type            empty;
    }
    procBoundary0to1
    {
        type            processor;
        value           nonuniform List<scalar> 5(2.49901e-06 2.19343e-06 1.90106e-06 1.70445e-06 1.61129e-06);
    }
    procBoundary0to2
    {
        type            processor;
        value           nonuniform List<scalar> 5(3.15738e-08 3.13568e-07 1.70067e-06 4.78999e-07 3.27331e-07);
    }
}


// ************************************************************************* //
