/*--------------------------------*- C++ -*----------------------------------*\
  =========                 |
  \\      /  F ield         | OpenFOAM: The Open Source CFD Toolbox
   \\    /   O peration     | Website:  https://openfoam.org
    \\  /    A nd           | Version:  8
     \\/     M anipulation  |
\*---------------------------------------------------------------------------*/
FoamFile
{
    version     2.0;
    format      ascii;
    class       volScalarField;
    location    "0.15";
    object      CH3O;
}
// * * * * * * * * * * * * * * * * * * * * * * * * * * * * * * * * * * * * * //

dimensions      [0 0 0 0 0 0 0];

internalField   nonuniform List<scalar> 
25
(
4.24142e-09
3.64532e-08
6.11517e-08
5.42075e-09
1.61977e-09
4.24789e-09
3.6469e-08
6.26338e-08
5.81288e-09
1.63685e-09
4.28308e-09
3.67938e-08
6.35384e-08
5.96811e-09
1.9384e-09
4.29068e-09
3.68145e-08
6.45297e-08
6.09249e-09
1.93395e-09
4.30927e-09
3.69504e-08
6.47126e-08
6.15661e-09
1.92507e-09
)
;

boundaryField
{
    fuel
    {
        type            fixedValue;
        value           uniform 0;
    }
    air
    {
        type            fixedValue;
        value           nonuniform List<scalar> 0();
    }
    outlet
    {
        type            inletOutlet;
        inletValue      uniform 0;
        value           nonuniform List<scalar> 5(4.24142e-09 3.64532e-08 6.11517e-08 5.42075e-09 1.61977e-09);
    }
    frontAndBack
    {
        type            empty;
    }
    procBoundary0to1
    {
        type            processor;
        value           nonuniform List<scalar> 5(2.71108e-09 2.17871e-09 1.94609e-09 1.70899e-09 1.55726e-09);
    }
    procBoundary0to2
    {
        type            processor;
        value           nonuniform List<scalar> 5(4.30544e-09 3.69247e-08 6.47334e-08 6.15889e-09 1.92318e-09);
    }
}


// ************************************************************************* //
