/*--------------------------------*- C++ -*----------------------------------*\
  =========                 |
  \\      /  F ield         | OpenFOAM: The Open Source CFD Toolbox
   \\    /   O peration     | Website:  https://openfoam.org
    \\  /    A nd           | Version:  8
     \\/     M anipulation  |
\*---------------------------------------------------------------------------*/
FoamFile
{
    version     2.0;
    format      ascii;
    class       volScalarField;
    location    "0.15";
    object      CO;
}
// * * * * * * * * * * * * * * * * * * * * * * * * * * * * * * * * * * * * * //

dimensions      [0 0 0 0 0 0 0];

internalField   nonuniform List<scalar> 
25
(
0.000200513
0.00195334
0.0106619
0.0305976
0.0443395
0.00020075
0.00194664
0.0105444
0.0302532
0.0446126
0.00020213
0.00195559
0.0105365
0.0302235
0.0449595
0.000202063
0.0019483
0.0104978
0.0302363
0.045222
0.000203215
0.00195739
0.0105109
0.030235
0.0453473
)
;

boundaryField
{
    fuel
    {
        type            fixedValue;
        value           uniform 0;
    }
    air
    {
        type            fixedValue;
        value           nonuniform List<scalar> 0();
    }
    outlet
    {
        type            inletOutlet;
        inletValue      uniform 0;
        value           nonuniform List<scalar> 5(0.000200513 0.00195334 0.0106619 0.0305976 0.0443395);
    }
    frontAndBack
    {
        type            empty;
    }
    procBoundary0to1
    {
        type            processor;
        value           nonuniform List<scalar> 5(0.0512865 0.0517874 0.0523959 0.052803 0.0529868);
    }
    procBoundary0to2
    {
        type            processor;
        value           nonuniform List<scalar> 5(0.000203214 0.00195739 0.010511 0.030235 0.0453471);
    }
}


// ************************************************************************* //
