/*--------------------------------*- C++ -*----------------------------------*\
  =========                 |
  \\      /  F ield         | OpenFOAM: The Open Source CFD Toolbox
   \\    /   O peration     | Website:  https://openfoam.org
    \\  /    A nd           | Version:  8
     \\/     M anipulation  |
\*---------------------------------------------------------------------------*/
FoamFile
{
    version     2.0;
    format      ascii;
    class       volScalarField;
    location    "0.15";
    object      H2CN;
}
// * * * * * * * * * * * * * * * * * * * * * * * * * * * * * * * * * * * * * //

dimensions      [0 0 0 0 0 0 0];

internalField   nonuniform List<scalar> 
25
(
9.30983e-12
7.99669e-11
3.25514e-10
2.14554e-11
2.90971e-12
9.48034e-12
8.13539e-11
3.33503e-10
2.31847e-11
3.08977e-12
9.70265e-12
8.32562e-11
3.4238e-10
2.39782e-11
3.28016e-12
9.83124e-12
8.41882e-11
3.48965e-10
2.46781e-11
3.36531e-12
9.95039e-12
8.51596e-11
3.52375e-10
2.50637e-11
3.37063e-12
)
;

boundaryField
{
    fuel
    {
        type            fixedValue;
        value           uniform 0;
    }
    air
    {
        type            fixedValue;
        value           nonuniform List<scalar> 0();
    }
    outlet
    {
        type            inletOutlet;
        inletValue      uniform 0;
        value           nonuniform List<scalar> 5(9.30983e-12 7.99669e-11 3.25514e-10 2.14554e-11 2.90971e-12);
    }
    frontAndBack
    {
        type            empty;
    }
    procBoundary0to1
    {
        type            processor;
        value           nonuniform List<scalar> 5(5.65411e-12 5.9584e-12 6.64833e-12 6.78949e-12 6.58816e-12);
    }
    procBoundary0to2
    {
        type            processor;
        value           nonuniform List<scalar> 5(9.94636e-12 8.51159e-11 3.52322e-10 2.50605e-11 3.36243e-12);
    }
}


// ************************************************************************* //
