/*--------------------------------*- C++ -*----------------------------------*\
  =========                 |
  \\      /  F ield         | OpenFOAM: The Open Source CFD Toolbox
   \\    /   O peration     | Website:  https://openfoam.org
    \\  /    A nd           | Version:  8
     \\/     M anipulation  |
\*---------------------------------------------------------------------------*/
FoamFile
{
    version     2.0;
    format      ascii;
    class       volScalarField;
    location    "0.15";
    object      H2O;
}
// * * * * * * * * * * * * * * * * * * * * * * * * * * * * * * * * * * * * * //

dimensions      [0 0 0 0 0 0 0];

internalField   nonuniform List<scalar> 
25
(
0.000458357
0.00435016
0.0231089
0.065117
0.093967
0.000457344
0.00432213
0.0227702
0.0640223
0.0936642
0.000458733
0.00432753
0.0226609
0.0635617
0.0934538
0.000457171
0.00429972
0.022505
0.0632835
0.0933122
0.000458869
0.00431255
0.0224913
0.0631191
0.0932357
)
;

boundaryField
{
    fuel
    {
        type            fixedValue;
        value           uniform 0;
    }
    air
    {
        type            fixedValue;
        value           nonuniform List<scalar> 0();
    }
    outlet
    {
        type            inletOutlet;
        inletValue      uniform 0;
        value           nonuniform List<scalar> 5(0.000458357 0.00435016 0.0231089 0.065117 0.093967);
    }
    frontAndBack
    {
        type            empty;
    }
    procBoundary0to1
    {
        type            processor;
        value           nonuniform List<scalar> 5(0.109001 0.108347 0.10785 0.107556 0.107465);
    }
    procBoundary0to2
    {
        type            processor;
        value           nonuniform List<scalar> 5(0.000458864 0.00431249 0.0224908 0.0631178 0.0932351);
    }
}


// ************************************************************************* //
