/*--------------------------------*- C++ -*----------------------------------*\
  =========                 |
  \\      /  F ield         | OpenFOAM: The Open Source CFD Toolbox
   \\    /   O peration     | Website:  https://openfoam.org
    \\  /    A nd           | Version:  8
     \\/     M anipulation  |
\*---------------------------------------------------------------------------*/
FoamFile
{
    version     2.0;
    format      ascii;
    class       volScalarField;
    location    "0.15";
    object      HCO;
}
// * * * * * * * * * * * * * * * * * * * * * * * * * * * * * * * * * * * * * //

dimensions      [0 0 0 0 0 0 0];

internalField   nonuniform List<scalar> 
25
(
4.78416e-13
4.92137e-12
9.3849e-11
9.26464e-10
7.08896e-09
4.71149e-13
4.77207e-12
8.94583e-11
8.65081e-10
6.85486e-09
4.71046e-13
4.73056e-12
8.82391e-11
8.71211e-10
7.20336e-09
4.69668e-13
4.66488e-12
8.62182e-11
8.47388e-10
7.01285e-09
4.69848e-13
4.64413e-12
8.48515e-11
8.19211e-10
6.74697e-09
)
;

boundaryField
{
    fuel
    {
        type            fixedValue;
        value           uniform 0;
    }
    air
    {
        type            fixedValue;
        value           nonuniform List<scalar> 0();
    }
    outlet
    {
        type            inletOutlet;
        inletValue      uniform 0;
        value           nonuniform List<scalar> 5(4.78416e-13 4.92137e-12 9.3849e-11 9.26464e-10 7.08896e-09);
    }
    frontAndBack
    {
        type            empty;
    }
    procBoundary0to1
    {
        type            processor;
        value           nonuniform List<scalar> 5(3.55954e-08 3.30558e-08 3.23087e-08 3.07424e-08 2.90125e-08);
    }
    procBoundary0to2
    {
        type            processor;
        value           nonuniform List<scalar> 5(4.69684e-13 4.63975e-12 8.4673e-11 8.14772e-10 6.70695e-09);
    }
}


// ************************************************************************* //
