/*--------------------------------*- C++ -*----------------------------------*\
  =========                 |
  \\      /  F ield         | OpenFOAM: The Open Source CFD Toolbox
   \\    /   O peration     | Website:  https://openfoam.org
    \\  /    A nd           | Version:  8
     \\/     M anipulation  |
\*---------------------------------------------------------------------------*/
FoamFile
{
    version     2.0;
    format      ascii;
    class       volScalarField;
    location    "0.15";
    object      N;
}
// * * * * * * * * * * * * * * * * * * * * * * * * * * * * * * * * * * * * * //

dimensions      [0 0 0 0 0 0 0];

internalField   nonuniform List<scalar> 
25
(
8.44956e-16
1.03666e-14
1.88789e-13
4.31025e-12
3.86381e-11
9.0989e-16
1.12415e-14
2.06393e-13
4.77222e-12
4.58274e-11
9.81425e-16
1.22175e-14
2.29056e-13
5.39161e-12
5.347e-11
1.02587e-15
1.2794e-14
2.41873e-13
5.73991e-12
5.73807e-11
1.04929e-15
1.30793e-14
2.43913e-13
5.75598e-12
5.76128e-11
)
;

boundaryField
{
    fuel
    {
        type            fixedValue;
        value           uniform 0;
    }
    air
    {
        type            fixedValue;
        value           nonuniform List<scalar> 0();
    }
    outlet
    {
        type            inletOutlet;
        inletValue      uniform 0;
        value           nonuniform List<scalar> 5(8.44956e-16 1.03666e-14 1.88789e-13 4.31025e-12 3.86381e-11);
    }
    frontAndBack
    {
        type            empty;
    }
    procBoundary0to1
    {
        type            processor;
        value           nonuniform List<scalar> 5(2.11211e-10 2.5376e-10 2.8935e-10 3.1015e-10 3.08732e-10);
    }
    procBoundary0to2
    {
        type            processor;
        value           nonuniform List<scalar> 5(1.04882e-15 1.30618e-14 2.42391e-13 5.71534e-12 5.72555e-11);
    }
}


// ************************************************************************* //
