/*--------------------------------*- C++ -*----------------------------------*\
  =========                 |
  \\      /  F ield         | OpenFOAM: The Open Source CFD Toolbox
   \\    /   O peration     | Website:  https://openfoam.org
    \\  /    A nd           | Version:  8
     \\/     M anipulation  |
\*---------------------------------------------------------------------------*/
FoamFile
{
    version     2.0;
    format      ascii;
    class       volScalarField;
    location    "0.15";
    object      N2O;
}
// * * * * * * * * * * * * * * * * * * * * * * * * * * * * * * * * * * * * * //

dimensions      [0 0 0 0 0 0 0];

internalField   nonuniform List<scalar> 
25
(
1.17755e-09
9.79409e-09
4.58195e-08
1.17619e-07
1.57907e-07
1.17931e-09
9.82131e-09
4.59125e-08
1.19236e-07
1.66362e-07
1.18555e-09
9.91377e-09
4.64175e-08
1.21787e-07
1.73986e-07
1.18325e-09
9.9077e-09
4.66238e-08
1.23641e-07
1.79203e-07
1.18785e-09
9.96896e-09
4.68893e-08
1.24543e-07
1.81351e-07
)
;

boundaryField
{
    fuel
    {
        type            fixedValue;
        value           uniform 0;
    }
    air
    {
        type            fixedValue;
        value           nonuniform List<scalar> 0();
    }
    outlet
    {
        type            inletOutlet;
        inletValue      uniform 0;
        value           nonuniform List<scalar> 5(1.17755e-09 9.79409e-09 4.58195e-08 1.17619e-07 1.57907e-07);
    }
    frontAndBack
    {
        type            empty;
    }
    procBoundary0to1
    {
        type            processor;
        value           nonuniform List<scalar> 5(1.72288e-07 1.92037e-07 2.0491e-07 2.14586e-07 2.1573e-07);
    }
    procBoundary0to2
    {
        type            processor;
        value           nonuniform List<scalar> 5(1.18784e-09 9.96902e-09 4.68903e-08 1.24545e-07 1.81353e-07);
    }
}


// ************************************************************************* //
