/*--------------------------------*- C++ -*----------------------------------*\
  =========                 |
  \\      /  F ield         | OpenFOAM: The Open Source CFD Toolbox
   \\    /   O peration     | Website:  https://openfoam.org
    \\  /    A nd           | Version:  8
     \\/     M anipulation  |
\*---------------------------------------------------------------------------*/
FoamFile
{
    version     2.0;
    format      ascii;
    class       volScalarField;
    location    "0.15";
    object      NH;
}
// * * * * * * * * * * * * * * * * * * * * * * * * * * * * * * * * * * * * * //

dimensions      [0 0 0 0 0 0 0];

internalField   nonuniform List<scalar> 
25
(
1.18017e-14
1.49487e-13
2.73473e-12
1.44654e-11
9.39244e-11
1.16646e-14
1.46626e-13
2.65634e-12
1.41101e-11
9.70154e-11
1.1668e-14
1.46257e-13
2.6333e-12
1.3804e-11
9.58977e-11
1.16291e-14
1.45342e-13
2.61289e-12
1.3938e-11
9.89713e-11
1.16495e-14
1.45565e-13
2.6094e-12
1.38807e-11
9.87208e-11
)
;

boundaryField
{
    fuel
    {
        type            fixedValue;
        value           uniform 0;
    }
    air
    {
        type            fixedValue;
        value           nonuniform List<scalar> 0();
    }
    outlet
    {
        type            inletOutlet;
        inletValue      uniform 0;
        value           nonuniform List<scalar> 5(1.18017e-14 1.49487e-13 2.73473e-12 1.44654e-11 9.39244e-11);
    }
    frontAndBack
    {
        type            empty;
    }
    procBoundary0to1
    {
        type            processor;
        value           nonuniform List<scalar> 5(4.61058e-10 5.03252e-10 5.32057e-10 5.50532e-10 5.46565e-10);
    }
    procBoundary0to2
    {
        type            processor;
        value           nonuniform List<scalar> 5(1.16447e-14 1.45516e-13 2.60788e-12 1.38298e-11 9.82461e-11);
    }
}


// ************************************************************************* //
