/*--------------------------------*- C++ -*----------------------------------*\
  =========                 |
  \\      /  F ield         | OpenFOAM: The Open Source CFD Toolbox
   \\    /   O peration     | Website:  https://openfoam.org
    \\  /    A nd           | Version:  8
     \\/     M anipulation  |
\*---------------------------------------------------------------------------*/
FoamFile
{
    version     2.0;
    format      ascii;
    class       volScalarField;
    location    "0.15";
    object      NH3;
}
// * * * * * * * * * * * * * * * * * * * * * * * * * * * * * * * * * * * * * //

dimensions      [0 0 0 0 0 0 0];

internalField   nonuniform List<scalar> 
25
(
1.88988e-08
1.57043e-07
7.03675e-07
1.70648e-06
2.28932e-06
1.89267e-08
1.56153e-07
6.9163e-07
1.6678e-06
2.25115e-06
1.90431e-08
1.56323e-07
6.85734e-07
1.64318e-06
2.21708e-06
1.90383e-08
1.55315e-07
6.78984e-07
1.6265e-06
2.19583e-06
1.9146e-08
1.55811e-07
6.77496e-07
1.61761e-06
2.18632e-06
)
;

boundaryField
{
    fuel
    {
        type            fixedValue;
        value           uniform 0;
    }
    air
    {
        type            fixedValue;
        value           nonuniform List<scalar> 0();
    }
    outlet
    {
        type            inletOutlet;
        inletValue      uniform 0;
        value           nonuniform List<scalar> 5(1.88988e-08 1.57043e-07 7.03675e-07 1.70648e-06 2.28932e-06);
    }
    frontAndBack
    {
        type            empty;
    }
    procBoundary0to1
    {
        type            processor;
        value           nonuniform List<scalar> 5(2.57423e-06 2.50078e-06 2.44434e-06 2.41513e-06 2.40842e-06);
    }
    procBoundary0to2
    {
        type            processor;
        value           nonuniform List<scalar> 5(1.91453e-08 1.55806e-07 6.77478e-07 1.61756e-06 2.18632e-06);
    }
}


// ************************************************************************* //
