/*--------------------------------*- C++ -*----------------------------------*\
  =========                 |
  \\      /  F ield         | OpenFOAM: The Open Source CFD Toolbox
   \\    /   O peration     | Website:  https://openfoam.org
    \\  /    A nd           | Version:  8
     \\/     M anipulation  |
\*---------------------------------------------------------------------------*/
FoamFile
{
    version     2.0;
    format      ascii;
    class       volScalarField;
    location    "0.15";
    object      NNH;
}
// * * * * * * * * * * * * * * * * * * * * * * * * * * * * * * * * * * * * * //

dimensions      [0 0 0 0 0 0 0];

internalField   nonuniform List<scalar> 
25
(
2.50057e-17
1.99635e-15
1.06233e-13
2.79309e-12
2.55633e-11
2.527e-17
2.01671e-15
1.07641e-13
2.85978e-12
2.78321e-11
2.61338e-17
2.08379e-15
1.11301e-13
2.97259e-12
2.94716e-11
2.66709e-17
2.13064e-15
1.14322e-13
3.07511e-12
3.06884e-11
2.68623e-17
2.14305e-15
1.1483e-13
3.08888e-12
3.09276e-11
)
;

boundaryField
{
    fuel
    {
        type            fixedValue;
        value           uniform 0;
    }
    air
    {
        type            fixedValue;
        value           nonuniform List<scalar> 0();
    }
    outlet
    {
        type            inletOutlet;
        inletValue      uniform 0;
        value           nonuniform List<scalar> 5(2.50057e-17 1.99635e-15 1.06233e-13 2.79309e-12 2.55633e-11);
    }
    frontAndBack
    {
        type            empty;
    }
    procBoundary0to1
    {
        type            processor;
        value           nonuniform List<scalar> 5(1.42909e-10 1.56169e-10 1.63605e-10 1.69913e-10 1.70673e-10);
    }
    procBoundary0to2
    {
        type            processor;
        value           nonuniform List<scalar> 5(2.67784e-17 2.13644e-15 1.14482e-13 3.07992e-12 3.08487e-11);
    }
}


// ************************************************************************* //
