/*--------------------------------*- C++ -*----------------------------------*\
  =========                 |
  \\      /  F ield         | OpenFOAM: The Open Source CFD Toolbox
   \\    /   O peration     | Website:  https://openfoam.org
    \\  /    A nd           | Version:  8
     \\/     M anipulation  |
\*---------------------------------------------------------------------------*/
FoamFile
{
    version     2.0;
    format      ascii;
    class       volScalarField;
    location    "0.15";
    object      NO2;
}
// * * * * * * * * * * * * * * * * * * * * * * * * * * * * * * * * * * * * * //

dimensions      [0 0 0 0 0 0 0];

internalField   nonuniform List<scalar> 
25
(
1.88423e-08
1.48078e-07
5.34353e-07
5.15288e-07
2.05143e-07
1.8844e-08
1.47978e-07
5.32079e-07
5.22254e-07
2.14053e-07
1.89041e-08
1.48645e-07
5.32824e-07
5.26645e-07
2.33159e-07
1.88317e-08
1.47895e-07
5.30802e-07
5.26941e-07
2.35463e-07
1.88866e-08
1.48448e-07
5.31406e-07
5.27196e-07
2.35719e-07
)
;

boundaryField
{
    fuel
    {
        type            fixedValue;
        value           uniform 0;
    }
    air
    {
        type            fixedValue;
        value           nonuniform List<scalar> 0();
    }
    outlet
    {
        type            inletOutlet;
        inletValue      uniform 0;
        value           nonuniform List<scalar> 5(1.88423e-08 1.48078e-07 5.34353e-07 5.15288e-07 2.05143e-07);
    }
    frontAndBack
    {
        type            empty;
    }
    procBoundary0to1
    {
        type            processor;
        value           nonuniform List<scalar> 5(1.76424e-07 1.76733e-07 1.73049e-07 1.67721e-07 1.65408e-07);
    }
    procBoundary0to2
    {
        type            processor;
        value           nonuniform List<scalar> 5(1.88852e-08 1.48427e-07 5.31234e-07 5.26896e-07 2.35637e-07);
    }
}


// ************************************************************************* //
