/*--------------------------------*- C++ -*----------------------------------*\
  =========                 |
  \\      /  F ield         | OpenFOAM: The Open Source CFD Toolbox
   \\    /   O peration     | Website:  https://openfoam.org
    \\  /    A nd           | Version:  8
     \\/     M anipulation  |
\*---------------------------------------------------------------------------*/
FoamFile
{
    version     2.0;
    format      ascii;
    class       volVectorField;
    location    "0.15";
    object      U;
}
// * * * * * * * * * * * * * * * * * * * * * * * * * * * * * * * * * * * * * //

dimensions      [0 1 -1 0 0 0 0];

internalField   nonuniform List<vector> 
25
(
(0.0991839 -0.0735027 0)
(0.0909682 -0.199866 0)
(0.0483077 -0.302268 0)
(-0.0161598 -0.372539 0)
(-0.109582 -0.357432 0)
(0.0997858 -0.0541818 0)
(0.0926854 -0.13075 0)
(0.0545854 -0.198139 0)
(-0.00150908 -0.252814 0)
(-0.108311 -0.269919 0)
(0.0991671 -0.038295 0)
(0.0908691 -0.101085 0)
(0.0545827 -0.154906 0)
(0.00150044 -0.193497 0)
(-0.109682 -0.202085 0)
(0.0995159 -0.0235067 0)
(0.0920583 -0.0574884 0)
(0.0567963 -0.086723 0)
(0.002958 -0.112411 0)
(-0.111903 -0.121095 0)
(0.100131 -0.0077718 0)
(0.0898601 -0.0201815 0)
(0.0574146 -0.0300278 0)
(0.00419977 -0.0381845 0)
(-0.112208 -0.0407729 0)
)
;

boundaryField
{
    fuel
    {
        type            fixedValue;
        value           uniform (0.1 0 0);
    }
    air
    {
        type            fixedValue;
        value           nonuniform List<vector> 0();
    }
    outlet
    {
        type            pressureInletOutletVelocity;
        value           nonuniform List<vector> 5((0.0991839 -0.0735027 0) (0.0909682 -0.199866 0) (0.0483077 -0.302268 0) (-0.0161598 -0.372539 0) (-0.109582 -0.357432 0));
    }
    frontAndBack
    {
        type            empty;
    }
    procBoundary0to1
    {
        type            processor;
        value           nonuniform List<vector> 5((-0.168058 -0.341219 0) (-0.185349 -0.261807 0) (-0.194539 -0.19467 0) (-0.199115 -0.116765 0) (-0.200613 -0.0391292 0));
    }
    procBoundary0to2
    {
        type            processor;
        value           nonuniform List<vector> 5((0.100131 0.00777083 0) (0.0898597 0.0201827 0) (0.0574136 0.0300264 0) (0.00419694 0.0381733 -6.25191e-29) (-0.112217 0.0407341 0));
    }
}


// ************************************************************************* //
