/*--------------------------------*- C++ -*----------------------------------*\
  =========                 |
  \\      /  F ield         | OpenFOAM: The Open Source CFD Toolbox
   \\    /   O peration     | Website:  https://openfoam.org
    \\  /    A nd           | Version:  8
     \\/     M anipulation  |
\*---------------------------------------------------------------------------*/
FoamFile
{
    version     2.0;
    format      ascii;
    class       volScalarField;
    location    "0.15";
    object      C2H;
}
// * * * * * * * * * * * * * * * * * * * * * * * * * * * * * * * * * * * * * //

dimensions      [0 0 0 0 0 0 0];

internalField   nonuniform List<scalar> 
25
(
1.19182e-07
1.2558e-08
5.61086e-10
8.30658e-12
6.81159e-14
1.29089e-07
1.30045e-08
5.56348e-10
8.04028e-12
6.73266e-14
1.32848e-07
1.30941e-08
5.42684e-10
7.72374e-12
6.4477e-14
1.3567e-07
1.31759e-08
5.3271e-10
7.47738e-12
6.22287e-14
1.35462e-07
1.31247e-08
5.26019e-10
7.31612e-12
6.07525e-14
)
;

boundaryField
{
    fuel
    {
        type            fixedValue;
        value           nonuniform List<scalar> 0();
    }
    air
    {
        type            fixedValue;
        value           uniform 0;
    }
    outlet
    {
        type            inletOutlet;
        inletValue      uniform 0;
        value           nonuniform List<scalar> 5(1.19182e-07 1.2558e-08 5.61086e-10 8.30658e-12 6.81159e-14);
    }
    frontAndBack
    {
        type            empty;
    }
    procBoundary1to0
    {
        type            processor;
        value           nonuniform List<scalar> 5(2.11305e-08 2.28026e-08 2.37393e-08 2.43594e-08 2.44051e-08);
    }
    procBoundary1to3
    {
        type            processor;
        value           nonuniform List<scalar> 5(1.35249e-07 1.30948e-08 5.2472e-10 7.29757e-12 6.0596e-14);
    }
}


// ************************************************************************* //
