/*--------------------------------*- C++ -*----------------------------------*\
  =========                 |
  \\      /  F ield         | OpenFOAM: The Open Source CFD Toolbox
   \\    /   O peration     | Website:  https://openfoam.org
    \\  /    A nd           | Version:  8
     \\/     M anipulation  |
\*---------------------------------------------------------------------------*/
FoamFile
{
    version     2.0;
    format      ascii;
    class       volScalarField;
    location    "0.15";
    object      C3H8;
}
// * * * * * * * * * * * * * * * * * * * * * * * * * * * * * * * * * * * * * //

dimensions      [0 0 0 0 0 0 0];

internalField   nonuniform List<scalar> 
25
(
1.45592e-07
1.63797e-08
6.85011e-09
1.76726e-09
2.83123e-10
1.46842e-07
1.61064e-08
6.25201e-09
1.63338e-09
2.62847e-10
1.58283e-07
1.65755e-08
5.84228e-09
1.53006e-09
2.43689e-10
1.55969e-07
1.61886e-08
5.46687e-09
1.44085e-09
2.27427e-10
1.54321e-07
1.59612e-08
5.34611e-09
1.37945e-09
2.16629e-10
)
;

boundaryField
{
    fuel
    {
        type            fixedValue;
        value           nonuniform List<scalar> 0();
    }
    air
    {
        type            fixedValue;
        value           uniform 0;
    }
    outlet
    {
        type            inletOutlet;
        inletValue      uniform 0;
        value           nonuniform List<scalar> 5(1.45592e-07 1.63797e-08 6.85011e-09 1.76726e-09 2.83123e-10);
    }
    frontAndBack
    {
        type            empty;
    }
    procBoundary1to0
    {
        type            processor;
        value           nonuniform List<scalar> 5(1.15278e-06 1.21855e-06 1.39141e-06 1.36976e-06 1.35951e-06);
    }
    procBoundary1to3
    {
        type            processor;
        value           nonuniform List<scalar> 5(1.54244e-07 1.5951e-08 5.3233e-09 1.37392e-09 2.16322e-10);
    }
}


// ************************************************************************* //
