/*--------------------------------*- C++ -*----------------------------------*\
  =========                 |
  \\      /  F ield         | OpenFOAM: The Open Source CFD Toolbox
   \\    /   O peration     | Website:  https://openfoam.org
    \\  /    A nd           | Version:  8
     \\/     M anipulation  |
\*---------------------------------------------------------------------------*/
FoamFile
{
    version     2.0;
    format      ascii;
    class       volScalarField;
    location    "0.15";
    object      CH;
}
// * * * * * * * * * * * * * * * * * * * * * * * * * * * * * * * * * * * * * //

dimensions      [0 0 0 0 0 0 0];

internalField   nonuniform List<scalar> 
25
(
1.41337e-09
1.48189e-10
6.6104e-12
9.78088e-14
8.019e-16
1.46911e-09
1.50451e-10
6.48307e-12
9.40005e-14
7.88264e-16
1.661e-09
1.62239e-10
6.70256e-12
9.52769e-14
7.94806e-16
1.66016e-09
1.60516e-10
6.47627e-12
9.08154e-14
7.55464e-16
1.56546e-09
1.52279e-10
6.11033e-12
8.50196e-14
7.06195e-16
)
;

boundaryField
{
    fuel
    {
        type            fixedValue;
        value           nonuniform List<scalar> 0();
    }
    air
    {
        type            fixedValue;
        value           uniform 0;
    }
    outlet
    {
        type            inletOutlet;
        inletValue      uniform 0;
        value           nonuniform List<scalar> 5(1.41337e-09 1.48189e-10 6.6104e-12 9.78088e-14 8.019e-16);
    }
    frontAndBack
    {
        type            empty;
    }
    procBoundary1to0
    {
        type            processor;
        value           nonuniform List<scalar> 5(2.49e-10 2.63985e-10 2.93802e-10 2.96298e-10 2.82861e-10);
    }
    procBoundary1to3
    {
        type            processor;
        value           nonuniform List<scalar> 5(1.55462e-09 1.50733e-10 6.04306e-12 8.40597e-14 6.98089e-16);
    }
}


// ************************************************************************* //
