/*--------------------------------*- C++ -*----------------------------------*\
  =========                 |
  \\      /  F ield         | OpenFOAM: The Open Source CFD Toolbox
   \\    /   O peration     | Website:  https://openfoam.org
    \\  /    A nd           | Version:  8
     \\/     M anipulation  |
\*---------------------------------------------------------------------------*/
FoamFile
{
    version     2.0;
    format      ascii;
    class       volScalarField;
    location    "0.15";
    object      CH3;
}
// * * * * * * * * * * * * * * * * * * * * * * * * * * * * * * * * * * * * * //

dimensions      [0 0 0 0 0 0 0];

internalField   nonuniform List<scalar> 
25
(
0.000179338
1.82969e-05
8.05916e-07
1.64523e-08
5.24281e-10
0.000164943
1.64946e-05
7.02984e-07
1.4238e-08
4.76826e-10
0.000150556
1.48334e-05
6.15506e-07
1.2519e-08
4.34846e-10
0.000142197
1.38477e-05
5.61434e-07
1.14042e-08
4.08826e-10
0.000136757
1.32956e-05
5.35502e-07
1.09219e-08
3.94991e-10
)
;

boundaryField
{
    fuel
    {
        type            fixedValue;
        value           nonuniform List<scalar> 0();
    }
    air
    {
        type            fixedValue;
        value           uniform 0;
    }
    outlet
    {
        type            inletOutlet;
        inletValue      uniform 0;
        value           nonuniform List<scalar> 5(0.000179338 1.82969e-05 8.05916e-07 1.64523e-08 5.24281e-10);
    }
    frontAndBack
    {
        type            empty;
    }
    procBoundary1to0
    {
        type            processor;
        value           nonuniform List<scalar> 5(4.46361e-05 4.33125e-05 4.45732e-05 4.34324e-05 4.26255e-05);
    }
    procBoundary1to3
    {
        type            processor;
        value           nonuniform List<scalar> 5(0.00013641 1.32456e-05 5.33319e-07 1.08927e-08 3.94859e-10);
    }
}


// ************************************************************************* //
