/*--------------------------------*- C++ -*----------------------------------*\
  =========                 |
  \\      /  F ield         | OpenFOAM: The Open Source CFD Toolbox
   \\    /   O peration     | Website:  https://openfoam.org
    \\  /    A nd           | Version:  8
     \\/     M anipulation  |
\*---------------------------------------------------------------------------*/
FoamFile
{
    version     2.0;
    format      ascii;
    class       volScalarField;
    location    "0.15";
    object      CH3O;
}
// * * * * * * * * * * * * * * * * * * * * * * * * * * * * * * * * * * * * * //

dimensions      [0 0 0 0 0 0 0];

internalField   nonuniform List<scalar> 
25
(
2.71108e-09
3.87935e-10
6.03298e-10
1.36354e-09
2.50642e-11
2.17871e-09
3.30937e-10
5.54303e-10
1.15176e-09
2.16373e-11
1.94609e-09
2.93725e-10
5.41911e-10
1.00208e-09
1.88477e-11
1.70899e-09
2.11392e-10
1.56417e-10
8.99088e-10
1.70383e-11
1.55726e-09
2.60339e-10
5.52593e-10
8.69599e-10
1.62418e-11
)
;

boundaryField
{
    fuel
    {
        type            fixedValue;
        value           nonuniform List<scalar> 0();
    }
    air
    {
        type            fixedValue;
        value           uniform 0;
    }
    outlet
    {
        type            inletOutlet;
        inletValue      uniform 0;
        value           nonuniform List<scalar> 5(2.71108e-09 3.87935e-10 6.03298e-10 1.36354e-09 2.50642e-11);
    }
    frontAndBack
    {
        type            empty;
    }
    procBoundary1to0
    {
        type            processor;
        value           nonuniform List<scalar> 5(1.61977e-09 1.63685e-09 1.9384e-09 1.93395e-09 1.92507e-09);
    }
    procBoundary1to3
    {
        type            processor;
        value           nonuniform List<scalar> 5(1.54658e-09 2.5881e-10 5.52596e-10 8.70106e-10 1.62494e-11);
    }
}


// ************************************************************************* //
