/*--------------------------------*- C++ -*----------------------------------*\
  =========                 |
  \\      /  F ield         | OpenFOAM: The Open Source CFD Toolbox
   \\    /   O peration     | Website:  https://openfoam.org
    \\  /    A nd           | Version:  8
     \\/     M anipulation  |
\*---------------------------------------------------------------------------*/
FoamFile
{
    version     2.0;
    format      ascii;
    class       volScalarField;
    location    "0.15";
    object      CN;
}
// * * * * * * * * * * * * * * * * * * * * * * * * * * * * * * * * * * * * * //

dimensions      [0 0 0 0 0 0 0];

internalField   nonuniform List<scalar> 
25
(
8.23534e-11
9.01492e-12
4.11189e-13
6.1519e-15
5.06743e-17
1.04151e-10
1.07122e-11
4.64143e-13
6.75408e-15
5.67141e-17
1.25758e-10
1.2464e-11
5.19054e-13
7.40804e-15
6.19011e-17
1.43515e-10
1.39154e-11
5.62387e-13
7.89506e-15
6.56942e-17
1.50046e-10
1.44875e-11
5.79868e-13
8.06133e-15
6.69184e-17
)
;

boundaryField
{
    fuel
    {
        type            fixedValue;
        value           nonuniform List<scalar> 0();
    }
    air
    {
        type            fixedValue;
        value           uniform 0;
    }
    outlet
    {
        type            inletOutlet;
        inletValue      uniform 0;
        value           nonuniform List<scalar> 5(8.23534e-11 9.01492e-12 4.11189e-13 6.1519e-15 5.06743e-17);
    }
    frontAndBack
    {
        type            empty;
    }
    procBoundary1to0
    {
        type            processor;
        value           nonuniform List<scalar> 5(1.52711e-11 1.88829e-11 2.26702e-11 2.57222e-11 2.69377e-11);
    }
    procBoundary1to3
    {
        type            processor;
        value           nonuniform List<scalar> 5(1.49738e-10 1.44439e-11 5.7797e-13 8.03423e-15 6.66895e-17);
    }
}


// ************************************************************************* //
