/*--------------------------------*- C++ -*----------------------------------*\
  =========                 |
  \\      /  F ield         | OpenFOAM: The Open Source CFD Toolbox
   \\    /   O peration     | Website:  https://openfoam.org
    \\  /    A nd           | Version:  8
     \\/     M anipulation  |
\*---------------------------------------------------------------------------*/
FoamFile
{
    version     2.0;
    format      ascii;
    class       volScalarField;
    location    "0.15";
    object      CO;
}
// * * * * * * * * * * * * * * * * * * * * * * * * * * * * * * * * * * * * * //

dimensions      [0 0 0 0 0 0 0];

internalField   nonuniform List<scalar> 
25
(
0.0512865
0.0058118
0.00171329
0.00026938
2.35806e-05
0.0517874
0.00568143
0.00164347
0.000257624
2.27807e-05
0.0523959
0.00559219
0.00159158
0.00025042
2.22149e-05
0.052803
0.00555685
0.00155468
0.000243843
2.17084e-05
0.0529868
0.00554492
0.00154106
0.00023893
2.13836e-05
)
;

boundaryField
{
    fuel
    {
        type            fixedValue;
        value           nonuniform List<scalar> 0();
    }
    air
    {
        type            fixedValue;
        value           uniform 0;
    }
    outlet
    {
        type            inletOutlet;
        inletValue      uniform 0;
        value           nonuniform List<scalar> 5(0.0512865 0.0058118 0.00171329 0.00026938 2.35806e-05);
    }
    frontAndBack
    {
        type            empty;
    }
    procBoundary1to0
    {
        type            processor;
        value           nonuniform List<scalar> 5(0.0443395 0.0446126 0.0449595 0.045222 0.0453473);
    }
    procBoundary1to3
    {
        type            processor;
        value           nonuniform List<scalar> 5(0.0529864 0.00554482 0.00154104 0.000238927 2.13834e-05);
    }
}


// ************************************************************************* //
