/*--------------------------------*- C++ -*----------------------------------*\
  =========                 |
  \\      /  F ield         | OpenFOAM: The Open Source CFD Toolbox
   \\    /   O peration     | Website:  https://openfoam.org
    \\  /    A nd           | Version:  8
     \\/     M anipulation  |
\*---------------------------------------------------------------------------*/
FoamFile
{
    version     2.0;
    format      ascii;
    class       volScalarField;
    location    "0.15";
    object      H;
}
// * * * * * * * * * * * * * * * * * * * * * * * * * * * * * * * * * * * * * //

dimensions      [0 0 0 0 0 0 0];

internalField   nonuniform List<scalar> 
25
(
3.54794e-06
6.75144e-07
2.98578e-08
4.39772e-10
3.59968e-12
3.79357e-06
6.47918e-07
2.74968e-08
3.95798e-10
3.31019e-12
3.90513e-06
5.8395e-07
2.42745e-08
3.45888e-10
2.89062e-12
4.01048e-06
5.8474e-07
2.36583e-08
3.31934e-10
2.76279e-12
4.00979e-06
5.60807e-07
2.25072e-08
3.13303e-10
2.60373e-12
)
;

boundaryField
{
    fuel
    {
        type            fixedValue;
        value           nonuniform List<scalar> 0();
    }
    air
    {
        type            fixedValue;
        value           uniform 0;
    }
    outlet
    {
        type            inletOutlet;
        inletValue      uniform 0;
        value           nonuniform List<scalar> 5(3.54794e-06 6.75144e-07 2.98578e-08 4.39772e-10 3.59968e-12);
    }
    frontAndBack
    {
        type            empty;
    }
    procBoundary1to0
    {
        type            processor;
        value           nonuniform List<scalar> 5(6.36833e-07 6.8046e-07 7.10112e-07 7.31666e-07 7.34049e-07);
    }
    procBoundary1to3
    {
        type            processor;
        value           nonuniform List<scalar> 5(4.00271e-06 5.59803e-07 2.24634e-08 3.12676e-10 2.59843e-12);
    }
}


// ************************************************************************* //
