/*--------------------------------*- C++ -*----------------------------------*\
  =========                 |
  \\      /  F ield         | OpenFOAM: The Open Source CFD Toolbox
   \\    /   O peration     | Website:  https://openfoam.org
    \\  /    A nd           | Version:  8
     \\/     M anipulation  |
\*---------------------------------------------------------------------------*/
FoamFile
{
    version     2.0;
    format      ascii;
    class       volScalarField;
    location    "0.15";
    object      H2O;
}
// * * * * * * * * * * * * * * * * * * * * * * * * * * * * * * * * * * * * * //

dimensions      [0 0 0 0 0 0 0];

internalField   nonuniform List<scalar> 
25
(
0.109001
0.0724775
0.0211041
0.0033298
0.000297715
0.108347
0.0699914
0.0200951
0.00316476
0.000285486
0.10785
0.0680126
0.0192825
0.00305269
0.000275861
0.107556
0.0668544
0.0186911
0.00295366
0.000267502
0.107465
0.0664667
0.0184596
0.00288333
0.000262223
)
;

boundaryField
{
    fuel
    {
        type            fixedValue;
        value           nonuniform List<scalar> 0();
    }
    air
    {
        type            fixedValue;
        value           uniform 0;
    }
    outlet
    {
        type            inletOutlet;
        inletValue      uniform 0;
        value           nonuniform List<scalar> 5(0.109001 0.0724775 0.0211041 0.0033298 0.000297715);
    }
    frontAndBack
    {
        type            empty;
    }
    procBoundary1to0
    {
        type            processor;
        value           nonuniform List<scalar> 5(0.093967 0.0936642 0.0934538 0.0933122 0.0932357);
    }
    procBoundary1to3
    {
        type            processor;
        value           nonuniform List<scalar> 5(0.107467 0.0664666 0.0184594 0.00288329 0.000262221);
    }
}


// ************************************************************************* //
