/*--------------------------------*- C++ -*----------------------------------*\
  =========                 |
  \\      /  F ield         | OpenFOAM: The Open Source CFD Toolbox
   \\    /   O peration     | Website:  https://openfoam.org
    \\  /    A nd           | Version:  8
     \\/     M anipulation  |
\*---------------------------------------------------------------------------*/
FoamFile
{
    version     2.0;
    format      ascii;
    class       volScalarField;
    location    "0.15";
    object      H2O2;
}
// * * * * * * * * * * * * * * * * * * * * * * * * * * * * * * * * * * * * * //

dimensions      [0 0 0 0 0 0 0];

internalField   nonuniform List<scalar> 
25
(
1.54771e-06
7.11019e-06
3.51095e-05
6.51543e-06
6.53053e-07
1.47766e-06
6.50069e-06
3.09251e-05
5.88815e-06
6.03038e-07
1.32534e-06
5.62774e-06
2.60904e-05
5.33781e-06
5.61105e-07
1.19167e-06
4.94974e-06
2.25703e-05
4.90109e-06
5.28685e-07
1.13683e-06
4.71487e-06
2.16114e-05
4.64449e-06
5.0909e-07
)
;

boundaryField
{
    fuel
    {
        type            fixedValue;
        value           nonuniform List<scalar> 0();
    }
    air
    {
        type            fixedValue;
        value           uniform 0;
    }
    outlet
    {
        type            inletOutlet;
        inletValue      uniform 0;
        value           nonuniform List<scalar> 5(1.54771e-06 7.11019e-06 3.51095e-05 6.51543e-06 6.53053e-07);
    }
    frontAndBack
    {
        type            empty;
    }
    procBoundary1to0
    {
        type            processor;
        value           nonuniform List<scalar> 5(3.62197e-07 3.52834e-07 3.40369e-07 3.2088e-07 3.11813e-07);
    }
    procBoundary1to3
    {
        type            processor;
        value           nonuniform List<scalar> 5(1.13657e-06 4.71451e-06 2.16105e-05 4.6444e-06 5.09109e-07);
    }
}


// ************************************************************************* //
