/*--------------------------------*- C++ -*----------------------------------*\
  =========                 |
  \\      /  F ield         | OpenFOAM: The Open Source CFD Toolbox
   \\    /   O peration     | Website:  https://openfoam.org
    \\  /    A nd           | Version:  8
     \\/     M anipulation  |
\*---------------------------------------------------------------------------*/
FoamFile
{
    version     2.0;
    format      ascii;
    class       volScalarField;
    location    "0.15";
    object      HCCO;
}
// * * * * * * * * * * * * * * * * * * * * * * * * * * * * * * * * * * * * * //

dimensions      [0 0 0 0 0 0 0];

internalField   nonuniform List<scalar> 
25
(
1.72703e-06
1.73482e-07
7.55198e-09
1.10744e-10
9.07064e-13
1.44722e-06
1.44948e-07
6.14862e-09
8.87485e-11
7.45164e-13
1.27752e-06
1.25237e-07
5.1622e-09
7.35816e-11
6.16646e-13
1.12757e-06
1.09741e-07
4.43376e-09
6.25179e-11
5.23074e-13
1.01446e-06
9.91652e-08
3.98556e-09
5.58199e-11
4.6654e-13
)
;

boundaryField
{
    fuel
    {
        type            fixedValue;
        value           nonuniform List<scalar> 0();
    }
    air
    {
        type            fixedValue;
        value           uniform 0;
    }
    outlet
    {
        type            inletOutlet;
        inletValue      uniform 0;
        value           nonuniform List<scalar> 5(1.72703e-06 1.73482e-07 7.55198e-09 1.10744e-10 9.07064e-13);
    }
    frontAndBack
    {
        type            empty;
    }
    procBoundary1to0
    {
        type            processor;
        value           nonuniform List<scalar> 5(2.97861e-07 2.59634e-07 2.28227e-07 2.04723e-07 1.86473e-07);
    }
    procBoundary1to3
    {
        type            processor;
        value           nonuniform List<scalar> 5(1.00693e-06 9.80848e-08 3.93848e-09 5.51479e-11 4.60864e-13);
    }
}


// ************************************************************************* //
