/*--------------------------------*- C++ -*----------------------------------*\
  =========                 |
  \\      /  F ield         | OpenFOAM: The Open Source CFD Toolbox
   \\    /   O peration     | Website:  https://openfoam.org
    \\  /    A nd           | Version:  8
     \\/     M anipulation  |
\*---------------------------------------------------------------------------*/
FoamFile
{
    version     2.0;
    format      ascii;
    class       volScalarField;
    location    "0.15";
    object      HCN;
}
// * * * * * * * * * * * * * * * * * * * * * * * * * * * * * * * * * * * * * //

dimensions      [0 0 0 0 0 0 0];

internalField   nonuniform List<scalar> 
25
(
4.81771e-06
5.37084e-07
1.57912e-07
2.57706e-08
2.53797e-09
5.2693e-06
5.64948e-07
1.59638e-07
2.55822e-08
2.53287e-09
5.79933e-06
6.02058e-07
1.63474e-07
2.58577e-08
2.55461e-09
6.20712e-06
6.32487e-07
1.66194e-07
2.5909e-08
2.56182e-09
6.39745e-06
6.48274e-07
1.68218e-07
2.57807e-08
2.56071e-09
)
;

boundaryField
{
    fuel
    {
        type            fixedValue;
        value           nonuniform List<scalar> 0();
    }
    air
    {
        type            fixedValue;
        value           uniform 0;
    }
    outlet
    {
        type            inletOutlet;
        inletValue      uniform 0;
        value           nonuniform List<scalar> 5(4.81771e-06 5.37084e-07 1.57912e-07 2.57706e-08 2.53797e-09);
    }
    frontAndBack
    {
        type            empty;
    }
    procBoundary1to0
    {
        type            processor;
        value           nonuniform List<scalar> 5(4.40527e-06 4.63986e-06 4.92065e-06 5.14242e-06 5.25901e-06);
    }
    procBoundary1to3
    {
        type            processor;
        value           nonuniform List<scalar> 5(6.396e-06 6.48057e-07 1.68208e-07 2.57796e-08 2.56045e-09);
    }
}


// ************************************************************************* //
