/*--------------------------------*- C++ -*----------------------------------*\
  =========                 |
  \\      /  F ield         | OpenFOAM: The Open Source CFD Toolbox
   \\    /   O peration     | Website:  https://openfoam.org
    \\  /    A nd           | Version:  8
     \\/     M anipulation  |
\*---------------------------------------------------------------------------*/
FoamFile
{
    version     2.0;
    format      ascii;
    class       volScalarField;
    location    "0.15";
    object      HCNO;
}
// * * * * * * * * * * * * * * * * * * * * * * * * * * * * * * * * * * * * * //

dimensions      [0 0 0 0 0 0 0];

internalField   nonuniform List<scalar> 
25
(
5.26575e-08
5.75715e-09
2.33582e-09
7.01773e-10
1.15462e-10
4.4293e-08
4.94964e-09
2.08112e-09
6.61509e-10
1.12564e-10
3.79863e-08
4.23098e-09
1.86827e-09
6.34672e-10
1.1099e-10
3.47597e-08
3.96164e-09
1.71935e-09
6.12351e-10
1.09787e-10
3.26046e-08
3.6635e-09
1.66847e-09
5.96342e-10
1.08991e-10
)
;

boundaryField
{
    fuel
    {
        type            fixedValue;
        value           nonuniform List<scalar> 0();
    }
    air
    {
        type            fixedValue;
        value           uniform 0;
    }
    outlet
    {
        type            inletOutlet;
        inletValue      uniform 0;
        value           nonuniform List<scalar> 5(5.26575e-08 5.75715e-09 2.33582e-09 7.01773e-10 1.15462e-10);
    }
    frontAndBack
    {
        type            empty;
    }
    procBoundary1to0
    {
        type            processor;
        value           nonuniform List<scalar> 5(6.25151e-08 5.78007e-08 5.33542e-08 5.04816e-08 4.92421e-08);
    }
    procBoundary1to3
    {
        type            processor;
        value           nonuniform List<scalar> 5(3.24546e-08 3.64199e-09 1.66814e-09 5.96369e-10 1.0899e-10);
    }
}


// ************************************************************************* //
