/*--------------------------------*- C++ -*----------------------------------*\
  =========                 |
  \\      /  F ield         | OpenFOAM: The Open Source CFD Toolbox
   \\    /   O peration     | Website:  https://openfoam.org
    \\  /    A nd           | Version:  8
     \\/     M anipulation  |
\*---------------------------------------------------------------------------*/
FoamFile
{
    version     2.0;
    format      ascii;
    class       volScalarField;
    location    "0.15";
    object      HCO;
}
// * * * * * * * * * * * * * * * * * * * * * * * * * * * * * * * * * * * * * //

dimensions      [0 0 0 0 0 0 0];

internalField   nonuniform List<scalar> 
25
(
3.55954e-08
3.64471e-09
1.61367e-10
2.65138e-12
3.15202e-14
3.30558e-08
3.33539e-09
1.43104e-10
2.32156e-12
2.76701e-14
3.23087e-08
3.17001e-09
1.31613e-10
2.11034e-12
2.4701e-14
3.07424e-08
2.98624e-09
1.20942e-10
1.92888e-12
2.24627e-14
2.90125e-08
2.82385e-09
1.13947e-10
1.81947e-12
2.12575e-14
)
;

boundaryField
{
    fuel
    {
        type            fixedValue;
        value           nonuniform List<scalar> 0();
    }
    air
    {
        type            fixedValue;
        value           uniform 0;
    }
    outlet
    {
        type            inletOutlet;
        inletValue      uniform 0;
        value           nonuniform List<scalar> 5(3.55954e-08 3.64471e-09 1.61367e-10 2.65138e-12 3.15202e-14);
    }
    frontAndBack
    {
        type            empty;
    }
    procBoundary1to0
    {
        type            processor;
        value           nonuniform List<scalar> 5(7.08896e-09 6.85486e-09 7.20336e-09 7.01285e-09 6.74697e-09);
    }
    procBoundary1to3
    {
        type            processor;
        value           nonuniform List<scalar> 5(2.88594e-08 2.80195e-09 1.12994e-10 1.80588e-12 2.11428e-14);
    }
}


// ************************************************************************* //
