/*--------------------------------*- C++ -*----------------------------------*\
  =========                 |
  \\      /  F ield         | OpenFOAM: The Open Source CFD Toolbox
   \\    /   O peration     | Website:  https://openfoam.org
    \\  /    A nd           | Version:  8
     \\/     M anipulation  |
\*---------------------------------------------------------------------------*/
FoamFile
{
    version     2.0;
    format      ascii;
    class       volScalarField;
    location    "0.15";
    object      NH2;
}
// * * * * * * * * * * * * * * * * * * * * * * * * * * * * * * * * * * * * * //

dimensions      [0 0 0 0 0 0 0];

internalField   nonuniform List<scalar> 
25
(
1.04636e-08
1.27687e-09
9.08722e-10
2.05864e-10
2.02001e-11
1.11866e-08
1.32145e-09
9.67268e-10
2.00005e-10
1.98513e-11
1.1534e-08
1.34039e-09
1.00109e-09
1.97401e-10
1.97146e-11
1.187e-08
1.36991e-09
1.07062e-09
1.97375e-10
1.96826e-11
1.18961e-08
1.36698e-09
1.06267e-09
1.93576e-10
1.95587e-11
)
;

boundaryField
{
    fuel
    {
        type            fixedValue;
        value           nonuniform List<scalar> 0();
    }
    air
    {
        type            fixedValue;
        value           uniform 0;
    }
    outlet
    {
        type            inletOutlet;
        inletValue      uniform 0;
        value           nonuniform List<scalar> 5(1.04636e-08 1.27687e-09 9.08722e-10 2.05864e-10 2.02001e-11);
    }
    frontAndBack
    {
        type            empty;
    }
    procBoundary1to0
    {
        type            processor;
        value           nonuniform List<scalar> 5(1.87475e-09 2.00286e-09 2.08837e-09 2.15588e-09 2.1671e-09);
    }
    procBoundary1to3
    {
        type            processor;
        value           nonuniform List<scalar> 5(1.18745e-08 1.36394e-09 1.06265e-09 1.93574e-10 1.95578e-11);
    }
}


// ************************************************************************* //
