/*--------------------------------*- C++ -*----------------------------------*\
  =========                 |
  \\      /  F ield         | OpenFOAM: The Open Source CFD Toolbox
   \\    /   O peration     | Website:  https://openfoam.org
    \\  /    A nd           | Version:  8
     \\/     M anipulation  |
\*---------------------------------------------------------------------------*/
FoamFile
{
    version     2.0;
    format      ascii;
    class       volScalarField;
    location    "0.15";
    object      NH3;
}
// * * * * * * * * * * * * * * * * * * * * * * * * * * * * * * * * * * * * * //

dimensions      [0 0 0 0 0 0 0];

internalField   nonuniform List<scalar> 
25
(
2.57423e-06
2.79822e-07
8.34055e-08
1.4908e-08
1.50198e-09
2.50078e-06
2.6562e-07
7.84884e-08
1.41201e-08
1.44695e-09
2.44434e-06
2.54387e-07
7.44096e-08
1.35705e-08
1.40644e-09
2.41513e-06
2.48145e-07
7.14446e-08
1.30928e-08
1.37187e-09
2.40842e-06
2.46233e-07
7.03096e-08
1.27568e-08
1.35067e-09
)
;

boundaryField
{
    fuel
    {
        type            fixedValue;
        value           nonuniform List<scalar> 0();
    }
    air
    {
        type            fixedValue;
        value           uniform 0;
    }
    outlet
    {
        type            inletOutlet;
        inletValue      uniform 0;
        value           nonuniform List<scalar> 5(2.57423e-06 2.79822e-07 8.34055e-08 1.4908e-08 1.50198e-09);
    }
    frontAndBack
    {
        type            empty;
    }
    procBoundary1to0
    {
        type            processor;
        value           nonuniform List<scalar> 5(2.28932e-06 2.25115e-06 2.21708e-06 2.19583e-06 2.18632e-06);
    }
    procBoundary1to3
    {
        type            processor;
        value           nonuniform List<scalar> 5(2.40871e-06 2.46272e-07 7.03072e-08 1.27562e-08 1.35061e-09);
    }
}


// ************************************************************************* //
