/*--------------------------------*- C++ -*----------------------------------*\
  =========                 |
  \\      /  F ield         | OpenFOAM: The Open Source CFD Toolbox
   \\    /   O peration     | Website:  https://openfoam.org
    \\  /    A nd           | Version:  8
     \\/     M anipulation  |
\*---------------------------------------------------------------------------*/
FoamFile
{
    version     2.0;
    format      ascii;
    class       volScalarField;
    location    "0.15";
    object      NO2;
}
// * * * * * * * * * * * * * * * * * * * * * * * * * * * * * * * * * * * * * //

dimensions      [0 0 0 0 0 0 0];

internalField   nonuniform List<scalar> 
25
(
1.76424e-07
7.1896e-07
3.42192e-06
7.26794e-07
8.15905e-08
1.76733e-07
6.86309e-07
3.13908e-06
6.74815e-07
7.74493e-08
1.73049e-07
6.45875e-07
2.89245e-06
6.36493e-07
7.42285e-08
1.67721e-07
6.1272e-07
2.71348e-06
6.06951e-07
7.17798e-08
1.65408e-07
6.01678e-07
2.67125e-06
5.87722e-07
7.03545e-08
)
;

boundaryField
{
    fuel
    {
        type            fixedValue;
        value           nonuniform List<scalar> 0();
    }
    air
    {
        type            fixedValue;
        value           uniform 0;
    }
    outlet
    {
        type            inletOutlet;
        inletValue      uniform 0;
        value           nonuniform List<scalar> 5(1.76424e-07 7.1896e-07 3.42192e-06 7.26794e-07 8.15905e-08);
    }
    frontAndBack
    {
        type            empty;
    }
    procBoundary1to0
    {
        type            processor;
        value           nonuniform List<scalar> 5(2.05143e-07 2.14053e-07 2.33159e-07 2.35463e-07 2.35719e-07);
    }
    procBoundary1to3
    {
        type            processor;
        value           nonuniform List<scalar> 5(1.65391e-07 6.01637e-07 2.67108e-06 5.87687e-07 7.03507e-08);
    }
}


// ************************************************************************* //
