/*--------------------------------*- C++ -*----------------------------------*\
  =========                 |
  \\      /  F ield         | OpenFOAM: The Open Source CFD Toolbox
   \\    /   O peration     | Website:  https://openfoam.org
    \\  /    A nd           | Version:  8
     \\/     M anipulation  |
\*---------------------------------------------------------------------------*/
FoamFile
{
    version     2.0;
    format      ascii;
    class       volVectorField;
    location    "0.15";
    object      U;
}
// * * * * * * * * * * * * * * * * * * * * * * * * * * * * * * * * * * * * * //

dimensions      [0 1 -1 0 0 0 0];

internalField   nonuniform List<vector> 
25
(
(-0.168058 -0.341219 0)
(-0.159543 -0.326581 0)
(-0.102135 -0.233715 0)
(-0.0992364 -0.135537 0)
(-0.101213 -0.0508557 0)
(-0.185349 -0.261807 0)
(-0.177032 -0.227224 0)
(-0.105672 -0.150583 0)
(-0.100587 -0.0840389 0)
(-0.102192 -0.0351994 0)
(-0.194539 -0.19467 0)
(-0.183613 -0.165288 0)
(-0.108432 -0.115301 0)
(-0.0981183 -0.0622043 0)
(-0.102856 -0.024199 0)
(-0.199115 -0.116765 0)
(-0.184694 -0.0966429 0)
(-0.111854 -0.0674234 0)
(-0.0975622 -0.035485 0)
(-0.103124 -0.0139728 0)
(-0.200613 -0.0391292 0)
(-0.183964 -0.0319622 3.36931e-29)
(-0.113382 -0.0225546 0)
(-0.0993351 -0.0139046 -2.11585e-29)
(-0.101943 -0.00357385 0)
)
;

boundaryField
{
    fuel
    {
        type            fixedValue;
        value           nonuniform List<vector> 0();
    }
    air
    {
        type            fixedValue;
        value           uniform (-0.1 0 0);
    }
    outlet
    {
        type            pressureInletOutletVelocity;
        value           nonuniform List<vector> 5((-0.168058 -0.341219 0) (-0.159543 -0.326581 0) (-0.102135 -0.233715 0) (-0.0992364 -0.135537 0) (-0.101213 -0.0508557 0));
    }
    frontAndBack
    {
        type            empty;
    }
    procBoundary1to0
    {
        type            processor;
        value           nonuniform List<vector> 5((-0.109582 -0.357432 0) (-0.108311 -0.269919 0) (-0.109682 -0.202085 0) (-0.111903 -0.121095 0) (-0.112208 -0.0407729 0));
    }
    procBoundary1to3
    {
        type            processor;
        value           nonuniform List<vector> 5((-0.200613 0.0390551 0) (-0.183953 0.0319255 3.3693e-29) (-0.113378 0.0225451 0) (-0.0993331 0.0139017 -2.11584e-29) (-0.101942 0.00357154 0));
    }
}


// ************************************************************************* //
